s -t 1.000000000 -Hs 2 -Hd -2 -Ni 2 -Nx 492.00 -Ny 421.00 -Nz 0.00 -Ne -1.000000 -Nl AGT -Nw --- -Ma 0 -Md 0 -Ms 0 -Mt 0 -Is 2.0 -Id 18.0 -It tcp -Il 40 -If 0 -Ii 0 -Iv 32 -Pn tcp -Ps 0 -Pa 0 -Pf 0 -Po 0 
r -t 1.000000000 -Hs 2 -Hd -2 -Ni 2 -Nx 492.00 -Ny 421.00 -Nz 0.00 -Ne -1.000000 -Nl RTR -Nw --- -Ma 0 -Md 0 -Ms 0 -Mt 0 -Is 2.0 -Id 18.0 -It tcp -Il 40 -If 0 -Ii 0 -Iv 32 -Pn tcp -Ps 0 -Pa 0 -Pf 0 -Po 0 
s -t 1.000000000 -Hs 27 -Hd -2 -Ni 27 -Nx 542.00 -Ny 221.00 -Nz 0.00 -Ne -1.000000 -Nl AGT -Nw --- -Ma 0 -Md 0 -Ms 0 -Mt 0 -Is 27.0 -Id 11.0 -It tcp -Il 40 -If 0 -Ii 1 -Iv 32 -Pn tcp -Ps 0 -Pa 0 -Pf 0 -Po 0 
r -t 1.000000000 -Hs 27 -Hd -2 -Ni 27 -Nx 542.00 -Ny 221.00 -Nz 0.00 -Ne -1.000000 -Nl RTR -Nw --- -Ma 0 -Md 0 -Ms 0 -Mt 0 -Is 27.0 -Id 11.0 -It tcp -Il 40 -If 0 -Ii 1 -Iv 32 -Pn tcp -Ps 0 -Pa 0 -Pf 0 -Po 0 
s -t 1.000000000 -Hs 2 -Hd -2 -Ni 2 -Nx 492.00 -Ny 421.00 -Nz 0.00 -Ne -1.000000 -Nl RTR -Nw --- -Ma 0 -Md 0 -Ms 0 -Mt 0 -Is 2.255 -Id -1.255 -It AODV -Il 48 -If 0 -Ii 0 -Iv 30 -P aodv -Pt 0x2 -Ph 1 -Pb 1 -Pd 18 -Pds 0 -Ps 2 -Pss 4 -Pc REQUEST 
s -t 1.000000000 -Hs 27 -Hd -2 -Ni 27 -Nx 542.00 -Ny 221.00 -Nz 0.00 -Ne -1.000000 -Nl RTR -Nw --- -Ma 0 -Md 0 -Ms 0 -Mt 0 -Is 27.255 -Id -1.255 -It AODV -Il 48 -If 0 -Ii 0 -Iv 30 -P aodv -Pt 0x2 -Ph 1 -Pb 1 -Pd 11 -Pds 0 -Ps 27 -Pss 4 -Pc REQUEST 
s -t 1.000375000 -Hs 27 -Hd -2 -Ni 27 -Nx 542.00 -Ny 221.00 -Nz 0.00 -Ne -1.000000 -Nl MAC -Nw --- -Ma 0 -Md ffffffff -Ms 1b -Mt 800 -Is 27.255 -Id -1.255 -It AODV -Il 106 -If 0 -Ii 0 -Iv 30 -P aodv -Pt 0x2 -Ph 1 -Pb 1 -Pd 11 -Pds 0 -Ps 27 -Pss 4 -Pc REQUEST 
r -t 1.001223167 -Hs 21 -Hd -2 -Ni 21 -Nx 542.00 -Ny 271.00 -Nz 0.00 -Ne -1.000000 -Nl MAC -Nw --- -Ma 0 -Md ffffffff -Ms 1b -Mt 800 -Is 27.255 -Id -1.255 -It AODV -Il 48 -If 0 -Ii 0 -Iv 30 -P aodv -Pt 0x2 -Ph 1 -Pb 1 -Pd 11 -Pds 0 -Ps 27 -Pss 4 -Pc REQUEST 
r -t 1.001223167 -Hs 26 -Hd -2 -Ni 26 -Nx 492.00 -Ny 221.00 -Nz 0.00 -Ne -1.000000 -Nl MAC -Nw --- -Ma 0 -Md ffffffff -Ms 1b -Mt 800 -Is 27.255 -Id -1.255 -It AODV -Il 48 -If 0 -Ii 0 -Iv 30 -P aodv -Pt 0x2 -Ph 1 -Pb 1 -Pd 11 -Pds 0 -Ps 27 -Pss 4 -Pc REQUEST 
r -t 1.001223167 -Hs 28 -Hd -2 -Ni 28 -Nx 592.00 -Ny 221.00 -Nz 0.00 -Ne -1.000000 -Nl MAC -Nw --- -Ma 0 -Md ffffffff -Ms 1b -Mt 800 -Is 27.255 -Id -1.255 -It AODV -Il 48 -If 0 -Ii 0 -Iv 30 -P aodv -Pt 0x2 -Ph 1 -Pb 1 -Pd 11 -Pds 0 -Ps 27 -Pss 4 -Pc REQUEST 
r -t 1.001223236 -Hs 20 -Hd -2 -Ni 20 -Nx 492.00 -Ny 271.00 -Nz 0.00 -Ne -1.000000 -Nl MAC -Nw --- -Ma 0 -Md ffffffff -Ms 1b -Mt 800 -Is 27.255 -Id -1.255 -It AODV -Il 48 -If 0 -Ii 0 -Iv 30 -P aodv -Pt 0x2 -Ph 1 -Pb 1 -Pd 11 -Pds 0 -Ps 27 -Pss 4 -Pc REQUEST 
r -t 1.001223236 -Hs 22 -Hd -2 -Ni 22 -Nx 592.00 -Ny 271.00 -Nz 0.00 -Ne -1.000000 -Nl MAC -Nw --- -Ma 0 -Md ffffffff -Ms 1b -Mt 800 -Is 27.255 -Id -1.255 -It AODV -Il 48 -If 0 -Ii 0 -Iv 30 -P aodv -Pt 0x2 -Ph 1 -Pb 1 -Pd 11 -Pds 0 -Ps 27 -Pss 4 -Pc REQUEST 
r -t 1.001223333 -Hs 15 -Hd -2 -Ni 15 -Nx 542.00 -Ny 321.00 -Nz 0.00 -Ne -1.000000 -Nl MAC -Nw --- -Ma 0 -Md ffffffff -Ms 1b -Mt 800 -Is 27.255 -Id -1.255 -It AODV -Il 48 -If 0 -Ii 0 -Iv 30 -P aodv -Pt 0x2 -Ph 1 -Pb 1 -Pd 11 -Pds 0 -Ps 27 -Pss 4 -Pc REQUEST 
r -t 1.001223333 -Hs 25 -Hd -2 -Ni 25 -Nx 442.00 -Ny 221.00 -Nz 0.00 -Ne -1.000000 -Nl MAC -Nw --- -Ma 0 -Md ffffffff -Ms 1b -Mt 800 -Is 27.255 -Id -1.255 -It AODV -Il 48 -If 0 -Ii 0 -Iv 30 -P aodv -Pt 0x2 -Ph 1 -Pb 1 -Pd 11 -Pds 0 -Ps 27 -Pss 4 -Pc REQUEST 
r -t 1.001223333 -Hs 29 -Hd -2 -Ni 29 -Nx 642.00 -Ny 221.00 -Nz 0.00 -Ne -1.000000 -Nl MAC -Nw --- -Ma 0 -Md ffffffff -Ms 1b -Mt 800 -Is 27.255 -Id -1.255 -It AODV -Il 48 -If 0 -Ii 0 -Iv 30 -P aodv -Pt 0x2 -Ph 1 -Pb 1 -Pd 11 -Pds 0 -Ps 27 -Pss 4 -Pc REQUEST 
r -t 1.001223373 -Hs 14 -Hd -2 -Ni 14 -Nx 492.00 -Ny 321.00 -Nz 0.00 -Ne -1.000000 -Nl MAC -Nw --- -Ma 0 -Md ffffffff -Ms 1b -Mt 800 -Is 27.255 -Id -1.255 -It AODV -Il 48 -If 0 -Ii 0 -Iv 30 -P aodv -Pt 0x2 -Ph 1 -Pb 1 -Pd 11 -Pds 0 -Ps 27 -Pss 4 -Pc REQUEST 
r -t 1.001223373 -Hs 19 -Hd -2 -Ni 19 -Nx 442.00 -Ny 271.00 -Nz 0.00 -Ne -1.000000 -Nl MAC -Nw --- -Ma 0 -Md ffffffff -Ms 1b -Mt 800 -Is 27.255 -Id -1.255 -It AODV -Il 48 -If 0 -Ii 0 -Iv 30 -P aodv -Pt 0x2 -Ph 1 -Pb 1 -Pd 11 -Pds 0 -Ps 27 -Pss 4 -Pc REQUEST 
r -t 1.001223373 -Hs 16 -Hd -2 -Ni 16 -Nx 592.00 -Ny 321.00 -Nz 0.00 -Ne -1.000000 -Nl MAC -Nw --- -Ma 0 -Md ffffffff -Ms 1b -Mt 800 -Is 27.255 -Id -1.255 -It AODV -Il 48 -If 0 -Ii 0 -Iv 30 -P aodv -Pt 0x2 -Ph 1 -Pb 1 -Pd 11 -Pds 0 -Ps 27 -Pss 4 -Pc REQUEST 
r -t 1.001223373 -Hs 23 -Hd -2 -Ni 23 -Nx 642.00 -Ny 271.00 -Nz 0.00 -Ne -1.000000 -Nl MAC -Nw --- -Ma 0 -Md ffffffff -Ms 1b -Mt 800 -Is 27.255 -Id -1.255 -It AODV -Il 48 -If 0 -Ii 0 -Iv 30 -P aodv -Pt 0x2 -Ph 1 -Pb 1 -Pd 11 -Pds 0 -Ps 27 -Pss 4 -Pc REQUEST 
r -t 1.001223471 -Hs 13 -Hd -2 -Ni 13 -Nx 442.00 -Ny 321.00 -Nz 0.00 -Ne -1.000000 -Nl MAC -Nw --- -Ma 0 -Md ffffffff -Ms 1b -Mt 800 -Is 27.255 -Id -1.255 -It AODV -Il 48 -If 0 -Ii 0 -Iv 30 -P aodv -Pt 0x2 -Ph 1 -Pb 1 -Pd 11 -Pds 0 -Ps 27 -Pss 4 -Pc REQUEST 
r -t 1.001223471 -Hs 17 -Hd -2 -Ni 17 -Nx 642.00 -Ny 321.00 -Nz 0.00 -Ne -1.000000 -Nl MAC -Nw --- -Ma 0 -Md ffffffff -Ms 1b -Mt 800 -Is 27.255 -Id -1.255 -It AODV -Il 48 -If 0 -Ii 0 -Iv 30 -P aodv -Pt 0x2 -Ph 1 -Pb 1 -Pd 11 -Pds 0 -Ps 27 -Pss 4 -Pc REQUEST 
r -t 1.001223500 -Hs 9 -Hd -2 -Ni 9 -Nx 542.00 -Ny 371.00 -Nz 0.00 -Ne -1.000000 -Nl MAC -Nw --- -Ma 0 -Md ffffffff -Ms 1b -Mt 800 -Is 27.255 -Id -1.255 -It AODV -Il 48 -If 0 -Ii 0 -Iv 30 -P aodv -Pt 0x2 -Ph 1 -Pb 1 -Pd 11 -Pds 0 -Ps 27 -Pss 4 -Pc REQUEST 
r -t 1.001223500 -Hs 24 -Hd -2 -Ni 24 -Nx 392.00 -Ny 221.00 -Nz 0.00 -Ne -1.000000 -Nl MAC -Nw --- -Ma 0 -Md ffffffff -Ms 1b -Mt 800 -Is 27.255 -Id -1.255 -It AODV -Il 48 -If 0 -Ii 0 -Iv 30 -P aodv -Pt 0x2 -Ph 1 -Pb 1 -Pd 11 -Pds 0 -Ps 27 -Pss 4 -Pc REQUEST 
r -t 1.001223527 -Hs 8 -Hd -2 -Ni 8 -Nx 492.00 -Ny 371.00 -Nz 0.00 -Ne -1.000000 -Nl MAC -Nw --- -Ma 0 -Md ffffffff -Ms 1b -Mt 800 -Is 27.255 -Id -1.255 -It AODV -Il 48 -If 0 -Ii 0 -Iv 30 -P aodv -Pt 0x2 -Ph 1 -Pb 1 -Pd 11 -Pds 0 -Ps 27 -Pss 4 -Pc REQUEST 
r -t 1.001223527 -Hs 18 -Hd -2 -Ni 18 -Nx 392.00 -Ny 271.00 -Nz 0.00 -Ne -1.000000 -Nl MAC -Nw --- -Ma 0 -Md ffffffff -Ms 1b -Mt 800 -Is 27.255 -Id -1.255 -It AODV -Il 48 -If 0 -Ii 0 -Iv 30 -P aodv -Pt 0x2 -Ph 1 -Pb 1 -Pd 11 -Pds 0 -Ps 27 -Pss 4 -Pc REQUEST 
r -t 1.001223527 -Hs 10 -Hd -2 -Ni 10 -Nx 592.00 -Ny 371.00 -Nz 0.00 -Ne -1.000000 -Nl MAC -Nw --- -Ma 0 -Md ffffffff -Ms 1b -Mt 800 -Is 27.255 -Id -1.255 -It AODV -Il 48 -If 0 -Ii 0 -Iv 30 -P aodv -Pt 0x2 -Ph 1 -Pb 1 -Pd 11 -Pds 0 -Ps 27 -Pss 4 -Pc REQUEST 
r -t 1.001223601 -Hs 7 -Hd -2 -Ni 7 -Nx 442.00 -Ny 371.00 -Nz 0.00 -Ne -1.000000 -Nl MAC -Nw --- -Ma 0 -Md ffffffff -Ms 1b -Mt 800 -Is 27.255 -Id -1.255 -It AODV -Il 48 -If 0 -Ii 0 -Iv 30 -P aodv -Pt 0x2 -Ph 1 -Pb 1 -Pd 11 -Pds 0 -Ps 27 -Pss 4 -Pc REQUEST 
r -t 1.001223601 -Hs 12 -Hd -2 -Ni 12 -Nx 392.00 -Ny 321.00 -Nz 0.00 -Ne -1.000000 -Nl MAC -Nw --- -Ma 0 -Md ffffffff -Ms 1b -Mt 800 -Is 27.255 -Id -1.255 -It AODV -Il 48 -If 0 -Ii 0 -Iv 30 -P aodv -Pt 0x2 -Ph 1 -Pb 1 -Pd 11 -Pds 0 -Ps 27 -Pss 4 -Pc REQUEST 
r -t 1.001223601 -Hs 11 -Hd -2 -Ni 11 -Nx 642.00 -Ny 371.00 -Nz 0.00 -Ne -1.000000 -Nl MAC -Nw --- -Ma 0 -Md ffffffff -Ms 1b -Mt 800 -Is 27.255 -Id -1.255 -It AODV -Il 48 -If 0 -Ii 0 -Iv 30 -P aodv -Pt 0x2 -Ph 1 -Pb 1 -Pd 11 -Pds 0 -Ps 27 -Pss 4 -Pc REQUEST 
r -t 1.001223667 -Hs 3 -Hd -2 -Ni 3 -Nx 542.00 -Ny 421.00 -Nz 0.00 -Ne -1.000000 -Nl MAC -Nw --- -Ma 0 -Md ffffffff -Ms 1b -Mt 800 -Is 27.255 -Id -1.255 -It AODV -Il 48 -If 0 -Ii 0 -Iv 30 -P aodv -Pt 0x2 -Ph 1 -Pb 1 -Pd 11 -Pds 0 -Ps 27 -Pss 4 -Pc REQUEST 
r -t 1.001223687 -Hs 2 -Hd -2 -Ni 2 -Nx 492.00 -Ny 421.00 -Nz 0.00 -Ne -1.000000 -Nl MAC -Nw --- -Ma 0 -Md ffffffff -Ms 1b -Mt 800 -Is 27.255 -Id -1.255 -It AODV -Il 48 -If 0 -Ii 0 -Iv 30 -P aodv -Pt 0x2 -Ph 1 -Pb 1 -Pd 11 -Pds 0 -Ps 27 -Pss 4 -Pc REQUEST 
r -t 1.001223687 -Hs 4 -Hd -2 -Ni 4 -Nx 592.00 -Ny 421.00 -Nz 0.00 -Ne -1.000000 -Nl MAC -Nw --- -Ma 0 -Md ffffffff -Ms 1b -Mt 800 -Is 27.255 -Id -1.255 -It AODV -Il 48 -If 0 -Ii 0 -Iv 30 -P aodv -Pt 0x2 -Ph 1 -Pb 1 -Pd 11 -Pds 0 -Ps 27 -Pss 4 -Pc REQUEST 
r -t 1.001223707 -Hs 6 -Hd -2 -Ni 6 -Nx 392.00 -Ny 371.00 -Nz 0.00 -Ne -1.000000 -Nl MAC -Nw --- -Ma 0 -Md ffffffff -Ms 1b -Mt 800 -Is 27.255 -Id -1.255 -It AODV -Il 48 -If 0 -Ii 0 -Iv 30 -P aodv -Pt 0x2 -Ph 1 -Pb 1 -Pd 11 -Pds 0 -Ps 27 -Pss 4 -Pc REQUEST 
r -t 1.001223745 -Hs 1 -Hd -2 -Ni 1 -Nx 442.00 -Ny 421.00 -Nz 0.00 -Ne -1.000000 -Nl MAC -Nw --- -Ma 0 -Md ffffffff -Ms 1b -Mt 800 -Is 27.255 -Id -1.255 -It AODV -Il 48 -If 0 -Ii 0 -Iv 30 -P aodv -Pt 0x2 -Ph 1 -Pb 1 -Pd 11 -Pds 0 -Ps 27 -Pss 4 -Pc REQUEST 
r -t 1.001223745 -Hs 5 -Hd -2 -Ni 5 -Nx 642.00 -Ny 421.00 -Nz 0.00 -Ne -1.000000 -Nl MAC -Nw --- -Ma 0 -Md ffffffff -Ms 1b -Mt 800 -Is 27.255 -Id -1.255 -It AODV -Il 48 -If 0 -Ii 0 -Iv 30 -P aodv -Pt 0x2 -Ph 1 -Pb 1 -Pd 11 -Pds 0 -Ps 27 -Pss 4 -Pc REQUEST 
r -t 1.001223833 -Hs 0 -Hd -2 -Ni 0 -Nx 392.00 -Ny 421.00 -Nz 0.00 -Ne -1.000000 -Nl MAC -Nw --- -Ma 0 -Md ffffffff -Ms 1b -Mt 800 -Is 27.255 -Id -1.255 -It AODV -Il 48 -If 0 -Ii 0 -Iv 30 -P aodv -Pt 0x2 -Ph 1 -Pb 1 -Pd 11 -Pds 0 -Ps 27 -Pss 4 -Pc REQUEST 
r -t 1.001248167 -Hs 21 -Hd -2 -Ni 21 -Nx 542.00 -Ny 271.00 -Nz 0.00 -Ne -1.000000 -Nl RTR -Nw --- -Ma 0 -Md ffffffff -Ms 1b -Mt 800 -Is 27.255 -Id -1.255 -It AODV -Il 48 -If 0 -Ii 0 -Iv 30 -P aodv -Pt 0x2 -Ph 1 -Pb 1 -Pd 11 -Pds 0 -Ps 27 -Pss 4 -Pc REQUEST 
r -t 1.001248167 -Hs 26 -Hd -2 -Ni 26 -Nx 492.00 -Ny 221.00 -Nz 0.00 -Ne -1.000000 -Nl RTR -Nw --- -Ma 0 -Md ffffffff -Ms 1b -Mt 800 -Is 27.255 -Id -1.255 -It AODV -Il 48 -If 0 -Ii 0 -Iv 30 -P aodv -Pt 0x2 -Ph 1 -Pb 1 -Pd 11 -Pds 0 -Ps 27 -Pss 4 -Pc REQUEST 
r -t 1.001248167 -Hs 28 -Hd -2 -Ni 28 -Nx 592.00 -Ny 221.00 -Nz 0.00 -Ne -1.000000 -Nl RTR -Nw --- -Ma 0 -Md ffffffff -Ms 1b -Mt 800 -Is 27.255 -Id -1.255 -It AODV -Il 48 -If 0 -Ii 0 -Iv 30 -P aodv -Pt 0x2 -Ph 1 -Pb 1 -Pd 11 -Pds 0 -Ps 27 -Pss 4 -Pc REQUEST 
r -t 1.001248236 -Hs 20 -Hd -2 -Ni 20 -Nx 492.00 -Ny 271.00 -Nz 0.00 -Ne -1.000000 -Nl RTR -Nw --- -Ma 0 -Md ffffffff -Ms 1b -Mt 800 -Is 27.255 -Id -1.255 -It AODV -Il 48 -If 0 -Ii 0 -Iv 30 -P aodv -Pt 0x2 -Ph 1 -Pb 1 -Pd 11 -Pds 0 -Ps 27 -Pss 4 -Pc REQUEST 
r -t 1.001248236 -Hs 22 -Hd -2 -Ni 22 -Nx 592.00 -Ny 271.00 -Nz 0.00 -Ne -1.000000 -Nl RTR -Nw --- -Ma 0 -Md ffffffff -Ms 1b -Mt 800 -Is 27.255 -Id -1.255 -It AODV -Il 48 -If 0 -Ii 0 -Iv 30 -P aodv -Pt 0x2 -Ph 1 -Pb 1 -Pd 11 -Pds 0 -Ps 27 -Pss 4 -Pc REQUEST 
r -t 1.001248333 -Hs 15 -Hd -2 -Ni 15 -Nx 542.00 -Ny 321.00 -Nz 0.00 -Ne -1.000000 -Nl RTR -Nw --- -Ma 0 -Md ffffffff -Ms 1b -Mt 800 -Is 27.255 -Id -1.255 -It AODV -Il 48 -If 0 -Ii 0 -Iv 30 -P aodv -Pt 0x2 -Ph 1 -Pb 1 -Pd 11 -Pds 0 -Ps 27 -Pss 4 -Pc REQUEST 
r -t 1.001248333 -Hs 25 -Hd -2 -Ni 25 -Nx 442.00 -Ny 221.00 -Nz 0.00 -Ne -1.000000 -Nl RTR -Nw --- -Ma 0 -Md ffffffff -Ms 1b -Mt 800 -Is 27.255 -Id -1.255 -It AODV -Il 48 -If 0 -Ii 0 -Iv 30 -P aodv -Pt 0x2 -Ph 1 -Pb 1 -Pd 11 -Pds 0 -Ps 27 -Pss 4 -Pc REQUEST 
r -t 1.001248333 -Hs 29 -Hd -2 -Ni 29 -Nx 642.00 -Ny 221.00 -Nz 0.00 -Ne -1.000000 -Nl RTR -Nw --- -Ma 0 -Md ffffffff -Ms 1b -Mt 800 -Is 27.255 -Id -1.255 -It AODV -Il 48 -If 0 -Ii 0 -Iv 30 -P aodv -Pt 0x2 -Ph 1 -Pb 1 -Pd 11 -Pds 0 -Ps 27 -Pss 4 -Pc REQUEST 
r -t 1.001248373 -Hs 14 -Hd -2 -Ni 14 -Nx 492.00 -Ny 321.00 -Nz 0.00 -Ne -1.000000 -Nl RTR -Nw --- -Ma 0 -Md ffffffff -Ms 1b -Mt 800 -Is 27.255 -Id -1.255 -It AODV -Il 48 -If 0 -Ii 0 -Iv 30 -P aodv -Pt 0x2 -Ph 1 -Pb 1 -Pd 11 -Pds 0 -Ps 27 -Pss 4 -Pc REQUEST 
r -t 1.001248373 -Hs 19 -Hd -2 -Ni 19 -Nx 442.00 -Ny 271.00 -Nz 0.00 -Ne -1.000000 -Nl RTR -Nw --- -Ma 0 -Md ffffffff -Ms 1b -Mt 800 -Is 27.255 -Id -1.255 -It AODV -Il 48 -If 0 -Ii 0 -Iv 30 -P aodv -Pt 0x2 -Ph 1 -Pb 1 -Pd 11 -Pds 0 -Ps 27 -Pss 4 -Pc REQUEST 
r -t 1.001248373 -Hs 16 -Hd -2 -Ni 16 -Nx 592.00 -Ny 321.00 -Nz 0.00 -Ne -1.000000 -Nl RTR -Nw --- -Ma 0 -Md ffffffff -Ms 1b -Mt 800 -Is 27.255 -Id -1.255 -It AODV -Il 48 -If 0 -Ii 0 -Iv 30 -P aodv -Pt 0x2 -Ph 1 -Pb 1 -Pd 11 -Pds 0 -Ps 27 -Pss 4 -Pc REQUEST 
r -t 1.001248373 -Hs 23 -Hd -2 -Ni 23 -Nx 642.00 -Ny 271.00 -Nz 0.00 -Ne -1.000000 -Nl RTR -Nw --- -Ma 0 -Md ffffffff -Ms 1b -Mt 800 -Is 27.255 -Id -1.255 -It AODV -Il 48 -If 0 -Ii 0 -Iv 30 -P aodv -Pt 0x2 -Ph 1 -Pb 1 -Pd 11 -Pds 0 -Ps 27 -Pss 4 -Pc REQUEST 
r -t 1.001248471 -Hs 13 -Hd -2 -Ni 13 -Nx 442.00 -Ny 321.00 -Nz 0.00 -Ne -1.000000 -Nl RTR -Nw --- -Ma 0 -Md ffffffff -Ms 1b -Mt 800 -Is 27.255 -Id -1.255 -It AODV -Il 48 -If 0 -Ii 0 -Iv 30 -P aodv -Pt 0x2 -Ph 1 -Pb 1 -Pd 11 -Pds 0 -Ps 27 -Pss 4 -Pc REQUEST 
r -t 1.001248471 -Hs 17 -Hd -2 -Ni 17 -Nx 642.00 -Ny 321.00 -Nz 0.00 -Ne -1.000000 -Nl RTR -Nw --- -Ma 0 -Md ffffffff -Ms 1b -Mt 800 -Is 27.255 -Id -1.255 -It AODV -Il 48 -If 0 -Ii 0 -Iv 30 -P aodv -Pt 0x2 -Ph 1 -Pb 1 -Pd 11 -Pds 0 -Ps 27 -Pss 4 -Pc REQUEST 
r -t 1.001248500 -Hs 9 -Hd -2 -Ni 9 -Nx 542.00 -Ny 371.00 -Nz 0.00 -Ne -1.000000 -Nl RTR -Nw --- -Ma 0 -Md ffffffff -Ms 1b -Mt 800 -Is 27.255 -Id -1.255 -It AODV -Il 48 -If 0 -Ii 0 -Iv 30 -P aodv -Pt 0x2 -Ph 1 -Pb 1 -Pd 11 -Pds 0 -Ps 27 -Pss 4 -Pc REQUEST 
r -t 1.001248500 -Hs 24 -Hd -2 -Ni 24 -Nx 392.00 -Ny 221.00 -Nz 0.00 -Ne -1.000000 -Nl RTR -Nw --- -Ma 0 -Md ffffffff -Ms 1b -Mt 800 -Is 27.255 -Id -1.255 -It AODV -Il 48 -If 0 -Ii 0 -Iv 30 -P aodv -Pt 0x2 -Ph 1 -Pb 1 -Pd 11 -Pds 0 -Ps 27 -Pss 4 -Pc REQUEST 
r -t 1.001248527 -Hs 8 -Hd -2 -Ni 8 -Nx 492.00 -Ny 371.00 -Nz 0.00 -Ne -1.000000 -Nl RTR -Nw --- -Ma 0 -Md ffffffff -Ms 1b -Mt 800 -Is 27.255 -Id -1.255 -It AODV -Il 48 -If 0 -Ii 0 -Iv 30 -P aodv -Pt 0x2 -Ph 1 -Pb 1 -Pd 11 -Pds 0 -Ps 27 -Pss 4 -Pc REQUEST 
r -t 1.001248527 -Hs 18 -Hd -2 -Ni 18 -Nx 392.00 -Ny 271.00 -Nz 0.00 -Ne -1.000000 -Nl RTR -Nw --- -Ma 0 -Md ffffffff -Ms 1b -Mt 800 -Is 27.255 -Id -1.255 -It AODV -Il 48 -If 0 -Ii 0 -Iv 30 -P aodv -Pt 0x2 -Ph 1 -Pb 1 -Pd 11 -Pds 0 -Ps 27 -Pss 4 -Pc REQUEST 
r -t 1.001248527 -Hs 10 -Hd -2 -Ni 10 -Nx 592.00 -Ny 371.00 -Nz 0.00 -Ne -1.000000 -Nl RTR -Nw --- -Ma 0 -Md ffffffff -Ms 1b -Mt 800 -Is 27.255 -Id -1.255 -It AODV -Il 48 -If 0 -Ii 0 -Iv 30 -P aodv -Pt 0x2 -Ph 1 -Pb 1 -Pd 11 -Pds 0 -Ps 27 -Pss 4 -Pc REQUEST 
r -t 1.001248601 -Hs 7 -Hd -2 -Ni 7 -Nx 442.00 -Ny 371.00 -Nz 0.00 -Ne -1.000000 -Nl RTR -Nw --- -Ma 0 -Md ffffffff -Ms 1b -Mt 800 -Is 27.255 -Id -1.255 -It AODV -Il 48 -If 0 -Ii 0 -Iv 30 -P aodv -Pt 0x2 -Ph 1 -Pb 1 -Pd 11 -Pds 0 -Ps 27 -Pss 4 -Pc REQUEST 
r -t 1.001248601 -Hs 12 -Hd -2 -Ni 12 -Nx 392.00 -Ny 321.00 -Nz 0.00 -Ne -1.000000 -Nl RTR -Nw --- -Ma 0 -Md ffffffff -Ms 1b -Mt 800 -Is 27.255 -Id -1.255 -It AODV -Il 48 -If 0 -Ii 0 -Iv 30 -P aodv -Pt 0x2 -Ph 1 -Pb 1 -Pd 11 -Pds 0 -Ps 27 -Pss 4 -Pc REQUEST 
r -t 1.001248601 -Hs 11 -Hd -2 -Ni 11 -Nx 642.00 -Ny 371.00 -Nz 0.00 -Ne -1.000000 -Nl RTR -Nw --- -Ma 0 -Md ffffffff -Ms 1b -Mt 800 -Is 27.255 -Id -1.255 -It AODV -Il 48 -If 0 -Ii 0 -Iv 30 -P aodv -Pt 0x2 -Ph 1 -Pb 1 -Pd 11 -Pds 0 -Ps 27 -Pss 4 -Pc REQUEST 
s -t 1.001248601 -Hs 11 -Hd 27 -Ni 11 -Nx 642.00 -Ny 371.00 -Nz 0.00 -Ne -1.000000 -Nl RTR -Nw --- -Ma 0 -Md 0 -Ms 0 -Mt 0 -Is 11.255 -Id 27.255 -It AODV -Il 44 -If 0 -Ii 0 -Iv 30 -P aodv -Pt 0x4 -Ph 1 -Pd 11 -Pds 4 -Pl 10.000000 -Pc REPLY 
r -t 1.001248667 -Hs 3 -Hd -2 -Ni 3 -Nx 542.00 -Ny 421.00 -Nz 0.00 -Ne -1.000000 -Nl RTR -Nw --- -Ma 0 -Md ffffffff -Ms 1b -Mt 800 -Is 27.255 -Id -1.255 -It AODV -Il 48 -If 0 -Ii 0 -Iv 30 -P aodv -Pt 0x2 -Ph 1 -Pb 1 -Pd 11 -Pds 0 -Ps 27 -Pss 4 -Pc REQUEST 
r -t 1.001248687 -Hs 2 -Hd -2 -Ni 2 -Nx 492.00 -Ny 421.00 -Nz 0.00 -Ne -1.000000 -Nl RTR -Nw --- -Ma 0 -Md ffffffff -Ms 1b -Mt 800 -Is 27.255 -Id -1.255 -It AODV -Il 48 -If 0 -Ii 0 -Iv 30 -P aodv -Pt 0x2 -Ph 1 -Pb 1 -Pd 11 -Pds 0 -Ps 27 -Pss 4 -Pc REQUEST 
r -t 1.001248687 -Hs 4 -Hd -2 -Ni 4 -Nx 592.00 -Ny 421.00 -Nz 0.00 -Ne -1.000000 -Nl RTR -Nw --- -Ma 0 -Md ffffffff -Ms 1b -Mt 800 -Is 27.255 -Id -1.255 -It AODV -Il 48 -If 0 -Ii 0 -Iv 30 -P aodv -Pt 0x2 -Ph 1 -Pb 1 -Pd 11 -Pds 0 -Ps 27 -Pss 4 -Pc REQUEST 
r -t 1.001248707 -Hs 6 -Hd -2 -Ni 6 -Nx 392.00 -Ny 371.00 -Nz 0.00 -Ne -1.000000 -Nl RTR -Nw --- -Ma 0 -Md ffffffff -Ms 1b -Mt 800 -Is 27.255 -Id -1.255 -It AODV -Il 48 -If 0 -Ii 0 -Iv 30 -P aodv -Pt 0x2 -Ph 1 -Pb 1 -Pd 11 -Pds 0 -Ps 27 -Pss 4 -Pc REQUEST 
r -t 1.001248745 -Hs 1 -Hd -2 -Ni 1 -Nx 442.00 -Ny 421.00 -Nz 0.00 -Ne -1.000000 -Nl RTR -Nw --- -Ma 0 -Md ffffffff -Ms 1b -Mt 800 -Is 27.255 -Id -1.255 -It AODV -Il 48 -If 0 -Ii 0 -Iv 30 -P aodv -Pt 0x2 -Ph 1 -Pb 1 -Pd 11 -Pds 0 -Ps 27 -Pss 4 -Pc REQUEST 
r -t 1.001248745 -Hs 5 -Hd -2 -Ni 5 -Nx 642.00 -Ny 421.00 -Nz 0.00 -Ne -1.000000 -Nl RTR -Nw --- -Ma 0 -Md ffffffff -Ms 1b -Mt 800 -Is 27.255 -Id -1.255 -It AODV -Il 48 -If 0 -Ii 0 -Iv 30 -P aodv -Pt 0x2 -Ph 1 -Pb 1 -Pd 11 -Pds 0 -Ps 27 -Pss 4 -Pc REQUEST 
r -t 1.001248833 -Hs 0 -Hd -2 -Ni 0 -Nx 392.00 -Ny 421.00 -Nz 0.00 -Ne -1.000000 -Nl RTR -Nw --- -Ma 0 -Md ffffffff -Ms 1b -Mt 800 -Is 27.255 -Id -1.255 -It AODV -Il 48 -If 0 -Ii 0 -Iv 30 -P aodv -Pt 0x2 -Ph 1 -Pb 1 -Pd 11 -Pds 0 -Ps 27 -Pss 4 -Pc REQUEST 
s -t 1.001533687 -Hs 2 -Hd -2 -Ni 2 -Nx 492.00 -Ny 421.00 -Nz 0.00 -Ne -1.000000 -Nl MAC -Nw --- -Ma 0 -Md ffffffff -Ms 2 -Mt 800 -Is 2.255 -Id -1.255 -It AODV -Il 106 -If 0 -Ii 0 -Iv 30 -P aodv -Pt 0x2 -Ph 1 -Pb 1 -Pd 18 -Pds 0 -Ps 2 -Pss 4 -Pc REQUEST 
s -t 1.001676318 -Hs 14 -Hd -2 -Ni 14 -Nx 492.00 -Ny 321.00 -Nz 0.00 -Ne -1.000000 -Nl RTR -Nw --- -Ma 0 -Md ffffffff -Ms 1b -Mt 800 -Is 14.255 -Id -1.255 -It AODV -Il 48 -If 0 -Ii 0 -Iv 29 -P aodv -Pt 0x2 -Ph 2 -Pb 1 -Pd 11 -Pds 0 -Ps 27 -Pss 4 -Pc REQUEST 
s -t 1.002189889 -Hs 9 -Hd -2 -Ni 9 -Nx 542.00 -Ny 371.00 -Nz 0.00 -Ne -1.000000 -Nl RTR -Nw --- -Ma 0 -Md ffffffff -Ms 1b -Mt 800 -Is 9.255 -Id -1.255 -It AODV -Il 48 -If 0 -Ii 0 -Iv 29 -P aodv -Pt 0x2 -Ph 2 -Pb 1 -Pd 11 -Pds 0 -Ps 27 -Pss 4 -Pc REQUEST 
r -t 1.002381854 -Hs 1 -Hd -2 -Ni 1 -Nx 442.00 -Ny 421.00 -Nz 0.00 -Ne -1.000000 -Nl MAC -Nw --- -Ma 0 -Md ffffffff -Ms 2 -Mt 800 -Is 2.255 -Id -1.255 -It AODV -Il 48 -If 0 -Ii 0 -Iv 30 -P aodv -Pt 0x2 -Ph 1 -Pb 1 -Pd 18 -Pds 0 -Ps 2 -Pss 4 -Pc REQUEST 
r -t 1.002381854 -Hs 8 -Hd -2 -Ni 8 -Nx 492.00 -Ny 371.00 -Nz 0.00 -Ne -1.000000 -Nl MAC -Nw --- -Ma 0 -Md ffffffff -Ms 2 -Mt 800 -Is 2.255 -Id -1.255 -It AODV -Il 48 -If 0 -Ii 0 -Iv 30 -P aodv -Pt 0x2 -Ph 1 -Pb 1 -Pd 18 -Pds 0 -Ps 2 -Pss 4 -Pc REQUEST 
r -t 1.002381854 -Hs 3 -Hd -2 -Ni 3 -Nx 542.00 -Ny 421.00 -Nz 0.00 -Ne -1.000000 -Nl MAC -Nw --- -Ma 0 -Md ffffffff -Ms 2 -Mt 800 -Is 2.255 -Id -1.255 -It AODV -Il 48 -If 0 -Ii 0 -Iv 30 -P aodv -Pt 0x2 -Ph 1 -Pb 1 -Pd 18 -Pds 0 -Ps 2 -Pss 4 -Pc REQUEST 
r -t 1.002381923 -Hs 7 -Hd -2 -Ni 7 -Nx 442.00 -Ny 371.00 -Nz 0.00 -Ne -1.000000 -Nl MAC -Nw --- -Ma 0 -Md ffffffff -Ms 2 -Mt 800 -Is 2.255 -Id -1.255 -It AODV -Il 48 -If 0 -Ii 0 -Iv 30 -P aodv -Pt 0x2 -Ph 1 -Pb 1 -Pd 18 -Pds 0 -Ps 2 -Pss 4 -Pc REQUEST 
r -t 1.002381923 -Hs 9 -Hd -2 -Ni 9 -Nx 542.00 -Ny 371.00 -Nz 0.00 -Ne -1.000000 -Nl MAC -Nw --- -Ma 0 -Md ffffffff -Ms 2 -Mt 800 -Is 2.255 -Id -1.255 -It AODV -Il 48 -If 0 -Ii 0 -Iv 30 -P aodv -Pt 0x2 -Ph 1 -Pb 1 -Pd 18 -Pds 0 -Ps 2 -Pss 4 -Pc REQUEST 
r -t 1.002382021 -Hs 0 -Hd -2 -Ni 0 -Nx 392.00 -Ny 421.00 -Nz 0.00 -Ne -1.000000 -Nl MAC -Nw --- -Ma 0 -Md ffffffff -Ms 2 -Mt 800 -Is 2.255 -Id -1.255 -It AODV -Il 48 -If 0 -Ii 0 -Iv 30 -P aodv -Pt 0x2 -Ph 1 -Pb 1 -Pd 18 -Pds 0 -Ps 2 -Pss 4 -Pc REQUEST 
r -t 1.002382021 -Hs 14 -Hd -2 -Ni 14 -Nx 492.00 -Ny 321.00 -Nz 0.00 -Ne -1.000000 -Nl MAC -Nw --- -Ma 0 -Md ffffffff -Ms 2 -Mt 800 -Is 2.255 -Id -1.255 -It AODV -Il 48 -If 0 -Ii 0 -Iv 30 -P aodv -Pt 0x2 -Ph 1 -Pb 1 -Pd 18 -Pds 0 -Ps 2 -Pss 4 -Pc REQUEST 
r -t 1.002382021 -Hs 4 -Hd -2 -Ni 4 -Nx 592.00 -Ny 421.00 -Nz 0.00 -Ne -1.000000 -Nl MAC -Nw --- -Ma 0 -Md ffffffff -Ms 2 -Mt 800 -Is 2.255 -Id -1.255 -It AODV -Il 48 -If 0 -Ii 0 -Iv 30 -P aodv -Pt 0x2 -Ph 1 -Pb 1 -Pd 18 -Pds 0 -Ps 2 -Pss 4 -Pc REQUEST 
r -t 1.002382060 -Hs 13 -Hd -2 -Ni 13 -Nx 442.00 -Ny 321.00 -Nz 0.00 -Ne -1.000000 -Nl MAC -Nw --- -Ma 0 -Md ffffffff -Ms 2 -Mt 800 -Is 2.255 -Id -1.255 -It AODV -Il 48 -If 0 -Ii 0 -Iv 30 -P aodv -Pt 0x2 -Ph 1 -Pb 1 -Pd 18 -Pds 0 -Ps 2 -Pss 4 -Pc REQUEST 
r -t 1.002382060 -Hs 6 -Hd -2 -Ni 6 -Nx 392.00 -Ny 371.00 -Nz 0.00 -Ne -1.000000 -Nl MAC -Nw --- -Ma 0 -Md ffffffff -Ms 2 -Mt 800 -Is 2.255 -Id -1.255 -It AODV -Il 48 -If 0 -Ii 0 -Iv 30 -P aodv -Pt 0x2 -Ph 1 -Pb 1 -Pd 18 -Pds 0 -Ps 2 -Pss 4 -Pc REQUEST 
r -t 1.002382060 -Hs 15 -Hd -2 -Ni 15 -Nx 542.00 -Ny 321.00 -Nz 0.00 -Ne -1.000000 -Nl MAC -Nw --- -Ma 0 -Md ffffffff -Ms 2 -Mt 800 -Is 2.255 -Id -1.255 -It AODV -Il 48 -If 0 -Ii 0 -Iv 30 -P aodv -Pt 0x2 -Ph 1 -Pb 1 -Pd 18 -Pds 0 -Ps 2 -Pss 4 -Pc REQUEST 
r -t 1.002382060 -Hs 10 -Hd -2 -Ni 10 -Nx 592.00 -Ny 371.00 -Nz 0.00 -Ne -1.000000 -Nl MAC -Nw --- -Ma 0 -Md ffffffff -Ms 2 -Mt 800 -Is 2.255 -Id -1.255 -It AODV -Il 48 -If 0 -Ii 0 -Iv 30 -P aodv -Pt 0x2 -Ph 1 -Pb 1 -Pd 18 -Pds 0 -Ps 2 -Pss 4 -Pc REQUEST 
r -t 1.002382159 -Hs 12 -Hd -2 -Ni 12 -Nx 392.00 -Ny 321.00 -Nz 0.00 -Ne -1.000000 -Nl MAC -Nw --- -Ma 0 -Md ffffffff -Ms 2 -Mt 800 -Is 2.255 -Id -1.255 -It AODV -Il 48 -If 0 -Ii 0 -Iv 30 -P aodv -Pt 0x2 -Ph 1 -Pb 1 -Pd 18 -Pds 0 -Ps 2 -Pss 4 -Pc REQUEST 
r -t 1.002382159 -Hs 16 -Hd -2 -Ni 16 -Nx 592.00 -Ny 321.00 -Nz 0.00 -Ne -1.000000 -Nl MAC -Nw --- -Ma 0 -Md ffffffff -Ms 2 -Mt 800 -Is 2.255 -Id -1.255 -It AODV -Il 48 -If 0 -Ii 0 -Iv 30 -P aodv -Pt 0x2 -Ph 1 -Pb 1 -Pd 18 -Pds 0 -Ps 2 -Pss 4 -Pc REQUEST 
r -t 1.002382187 -Hs 20 -Hd -2 -Ni 20 -Nx 492.00 -Ny 271.00 -Nz 0.00 -Ne -1.000000 -Nl MAC -Nw --- -Ma 0 -Md ffffffff -Ms 2 -Mt 800 -Is 2.255 -Id -1.255 -It AODV -Il 48 -If 0 -Ii 0 -Iv 30 -P aodv -Pt 0x2 -Ph 1 -Pb 1 -Pd 18 -Pds 0 -Ps 2 -Pss 4 -Pc REQUEST 
r -t 1.002382187 -Hs 5 -Hd -2 -Ni 5 -Nx 642.00 -Ny 421.00 -Nz 0.00 -Ne -1.000000 -Nl MAC -Nw --- -Ma 0 -Md ffffffff -Ms 2 -Mt 800 -Is 2.255 -Id -1.255 -It AODV -Il 48 -If 0 -Ii 0 -Iv 30 -P aodv -Pt 0x2 -Ph 1 -Pb 1 -Pd 18 -Pds 0 -Ps 2 -Pss 4 -Pc REQUEST 
r -t 1.002382214 -Hs 19 -Hd -2 -Ni 19 -Nx 442.00 -Ny 271.00 -Nz 0.00 -Ne -1.000000 -Nl MAC -Nw --- -Ma 0 -Md ffffffff -Ms 2 -Mt 800 -Is 2.255 -Id -1.255 -It AODV -Il 48 -If 0 -Ii 0 -Iv 30 -P aodv -Pt 0x2 -Ph 1 -Pb 1 -Pd 18 -Pds 0 -Ps 2 -Pss 4 -Pc REQUEST 
r -t 1.002382214 -Hs 21 -Hd -2 -Ni 21 -Nx 542.00 -Ny 271.00 -Nz 0.00 -Ne -1.000000 -Nl MAC -Nw --- -Ma 0 -Md ffffffff -Ms 2 -Mt 800 -Is 2.255 -Id -1.255 -It AODV -Il 48 -If 0 -Ii 0 -Iv 30 -P aodv -Pt 0x2 -Ph 1 -Pb 1 -Pd 18 -Pds 0 -Ps 2 -Pss 4 -Pc REQUEST 
r -t 1.002382214 -Hs 11 -Hd -2 -Ni 11 -Nx 642.00 -Ny 371.00 -Nz 0.00 -Ne -1.000000 -Nl MAC -Nw --- -Ma 0 -Md ffffffff -Ms 2 -Mt 800 -Is 2.255 -Id -1.255 -It AODV -Il 48 -If 0 -Ii 0 -Iv 30 -P aodv -Pt 0x2 -Ph 1 -Pb 1 -Pd 18 -Pds 0 -Ps 2 -Pss 4 -Pc REQUEST 
r -t 1.002382288 -Hs 18 -Hd -2 -Ni 18 -Nx 392.00 -Ny 271.00 -Nz 0.00 -Ne -1.000000 -Nl MAC -Nw --- -Ma 0 -Md ffffffff -Ms 2 -Mt 800 -Is 2.255 -Id -1.255 -It AODV -Il 48 -If 0 -Ii 0 -Iv 30 -P aodv -Pt 0x2 -Ph 1 -Pb 1 -Pd 18 -Pds 0 -Ps 2 -Pss 4 -Pc REQUEST 
r -t 1.002382288 -Hs 22 -Hd -2 -Ni 22 -Nx 592.00 -Ny 271.00 -Nz 0.00 -Ne -1.000000 -Nl MAC -Nw --- -Ma 0 -Md ffffffff -Ms 2 -Mt 800 -Is 2.255 -Id -1.255 -It AODV -Il 48 -If 0 -Ii 0 -Iv 30 -P aodv -Pt 0x2 -Ph 1 -Pb 1 -Pd 18 -Pds 0 -Ps 2 -Pss 4 -Pc REQUEST 
r -t 1.002382288 -Hs 17 -Hd -2 -Ni 17 -Nx 642.00 -Ny 321.00 -Nz 0.00 -Ne -1.000000 -Nl MAC -Nw --- -Ma 0 -Md ffffffff -Ms 2 -Mt 800 -Is 2.255 -Id -1.255 -It AODV -Il 48 -If 0 -Ii 0 -Iv 30 -P aodv -Pt 0x2 -Ph 1 -Pb 1 -Pd 18 -Pds 0 -Ps 2 -Pss 4 -Pc REQUEST 
r -t 1.002382354 -Hs 26 -Hd -2 -Ni 26 -Nx 492.00 -Ny 221.00 -Nz 0.00 -Ne -1.000000 -Nl MAC -Nw --- -Ma 0 -Md ffffffff -Ms 2 -Mt 800 -Is 2.255 -Id -1.255 -It AODV -Il 48 -If 0 -Ii 0 -Iv 30 -P aodv -Pt 0x2 -Ph 1 -Pb 1 -Pd 18 -Pds 0 -Ps 2 -Pss 4 -Pc REQUEST 
r -t 1.002382374 -Hs 25 -Hd -2 -Ni 25 -Nx 442.00 -Ny 221.00 -Nz 0.00 -Ne -1.000000 -Nl MAC -Nw --- -Ma 0 -Md ffffffff -Ms 2 -Mt 800 -Is 2.255 -Id -1.255 -It AODV -Il 48 -If 0 -Ii 0 -Iv 30 -P aodv -Pt 0x2 -Ph 1 -Pb 1 -Pd 18 -Pds 0 -Ps 2 -Pss 4 -Pc REQUEST 
r -t 1.002382374 -Hs 27 -Hd -2 -Ni 27 -Nx 542.00 -Ny 221.00 -Nz 0.00 -Ne -1.000000 -Nl MAC -Nw --- -Ma 0 -Md ffffffff -Ms 2 -Mt 800 -Is 2.255 -Id -1.255 -It AODV -Il 48 -If 0 -Ii 0 -Iv 30 -P aodv -Pt 0x2 -Ph 1 -Pb 1 -Pd 18 -Pds 0 -Ps 2 -Pss 4 -Pc REQUEST 
r -t 1.002382394 -Hs 23 -Hd -2 -Ni 23 -Nx 642.00 -Ny 271.00 -Nz 0.00 -Ne -1.000000 -Nl MAC -Nw --- -Ma 0 -Md ffffffff -Ms 2 -Mt 800 -Is 2.255 -Id -1.255 -It AODV -Il 48 -If 0 -Ii 0 -Iv 30 -P aodv -Pt 0x2 -Ph 1 -Pb 1 -Pd 18 -Pds 0 -Ps 2 -Pss 4 -Pc REQUEST 
r -t 1.002382433 -Hs 24 -Hd -2 -Ni 24 -Nx 392.00 -Ny 221.00 -Nz 0.00 -Ne -1.000000 -Nl MAC -Nw --- -Ma 0 -Md ffffffff -Ms 2 -Mt 800 -Is 2.255 -Id -1.255 -It AODV -Il 48 -If 0 -Ii 0 -Iv 30 -P aodv -Pt 0x2 -Ph 1 -Pb 1 -Pd 18 -Pds 0 -Ps 2 -Pss 4 -Pc REQUEST 
r -t 1.002382433 -Hs 28 -Hd -2 -Ni 28 -Nx 592.00 -Ny 221.00 -Nz 0.00 -Ne -1.000000 -Nl MAC -Nw --- -Ma 0 -Md ffffffff -Ms 2 -Mt 800 -Is 2.255 -Id -1.255 -It AODV -Il 48 -If 0 -Ii 0 -Iv 30 -P aodv -Pt 0x2 -Ph 1 -Pb 1 -Pd 18 -Pds 0 -Ps 2 -Pss 4 -Pc REQUEST 
r -t 1.002382521 -Hs 29 -Hd -2 -Ni 29 -Nx 642.00 -Ny 221.00 -Nz 0.00 -Ne -1.000000 -Nl MAC -Nw --- -Ma 0 -Md ffffffff -Ms 2 -Mt 800 -Is 2.255 -Id -1.255 -It AODV -Il 48 -If 0 -Ii 0 -Iv 30 -P aodv -Pt 0x2 -Ph 1 -Pb 1 -Pd 18 -Pds 0 -Ps 2 -Pss 4 -Pc REQUEST 
s -t 1.002386455 -Hs 16 -Hd -2 -Ni 16 -Nx 592.00 -Ny 321.00 -Nz 0.00 -Ne -1.000000 -Nl RTR -Nw --- -Ma 0 -Md ffffffff -Ms 1b -Mt 800 -Is 16.255 -Id -1.255 -It AODV -Il 48 -If 0 -Ii 0 -Iv 29 -P aodv -Pt 0x2 -Ph 2 -Pb 1 -Pd 11 -Pds 0 -Ps 27 -Pss 4 -Pc REQUEST 
r -t 1.002406854 -Hs 1 -Hd -2 -Ni 1 -Nx 442.00 -Ny 421.00 -Nz 0.00 -Ne -1.000000 -Nl RTR -Nw --- -Ma 0 -Md ffffffff -Ms 2 -Mt 800 -Is 2.255 -Id -1.255 -It AODV -Il 48 -If 0 -Ii 0 -Iv 30 -P aodv -Pt 0x2 -Ph 1 -Pb 1 -Pd 18 -Pds 0 -Ps 2 -Pss 4 -Pc REQUEST 
r -t 1.002406854 -Hs 8 -Hd -2 -Ni 8 -Nx 492.00 -Ny 371.00 -Nz 0.00 -Ne -1.000000 -Nl RTR -Nw --- -Ma 0 -Md ffffffff -Ms 2 -Mt 800 -Is 2.255 -Id -1.255 -It AODV -Il 48 -If 0 -Ii 0 -Iv 30 -P aodv -Pt 0x2 -Ph 1 -Pb 1 -Pd 18 -Pds 0 -Ps 2 -Pss 4 -Pc REQUEST 
r -t 1.002406854 -Hs 3 -Hd -2 -Ni 3 -Nx 542.00 -Ny 421.00 -Nz 0.00 -Ne -1.000000 -Nl RTR -Nw --- -Ma 0 -Md ffffffff -Ms 2 -Mt 800 -Is 2.255 -Id -1.255 -It AODV -Il 48 -If 0 -Ii 0 -Iv 30 -P aodv -Pt 0x2 -Ph 1 -Pb 1 -Pd 18 -Pds 0 -Ps 2 -Pss 4 -Pc REQUEST 
r -t 1.002406923 -Hs 7 -Hd -2 -Ni 7 -Nx 442.00 -Ny 371.00 -Nz 0.00 -Ne -1.000000 -Nl RTR -Nw --- -Ma 0 -Md ffffffff -Ms 2 -Mt 800 -Is 2.255 -Id -1.255 -It AODV -Il 48 -If 0 -Ii 0 -Iv 30 -P aodv -Pt 0x2 -Ph 1 -Pb 1 -Pd 18 -Pds 0 -Ps 2 -Pss 4 -Pc REQUEST 
r -t 1.002406923 -Hs 9 -Hd -2 -Ni 9 -Nx 542.00 -Ny 371.00 -Nz 0.00 -Ne -1.000000 -Nl RTR -Nw --- -Ma 0 -Md ffffffff -Ms 2 -Mt 800 -Is 2.255 -Id -1.255 -It AODV -Il 48 -If 0 -Ii 0 -Iv 30 -P aodv -Pt 0x2 -Ph 1 -Pb 1 -Pd 18 -Pds 0 -Ps 2 -Pss 4 -Pc REQUEST 
r -t 1.002407021 -Hs 0 -Hd -2 -Ni 0 -Nx 392.00 -Ny 421.00 -Nz 0.00 -Ne -1.000000 -Nl RTR -Nw --- -Ma 0 -Md ffffffff -Ms 2 -Mt 800 -Is 2.255 -Id -1.255 -It AODV -Il 48 -If 0 -Ii 0 -Iv 30 -P aodv -Pt 0x2 -Ph 1 -Pb 1 -Pd 18 -Pds 0 -Ps 2 -Pss 4 -Pc REQUEST 
r -t 1.002407021 -Hs 14 -Hd -2 -Ni 14 -Nx 492.00 -Ny 321.00 -Nz 0.00 -Ne -1.000000 -Nl RTR -Nw --- -Ma 0 -Md ffffffff -Ms 2 -Mt 800 -Is 2.255 -Id -1.255 -It AODV -Il 48 -If 0 -Ii 0 -Iv 30 -P aodv -Pt 0x2 -Ph 1 -Pb 1 -Pd 18 -Pds 0 -Ps 2 -Pss 4 -Pc REQUEST 
r -t 1.002407021 -Hs 4 -Hd -2 -Ni 4 -Nx 592.00 -Ny 421.00 -Nz 0.00 -Ne -1.000000 -Nl RTR -Nw --- -Ma 0 -Md ffffffff -Ms 2 -Mt 800 -Is 2.255 -Id -1.255 -It AODV -Il 48 -If 0 -Ii 0 -Iv 30 -P aodv -Pt 0x2 -Ph 1 -Pb 1 -Pd 18 -Pds 0 -Ps 2 -Pss 4 -Pc REQUEST 
r -t 1.002407060 -Hs 13 -Hd -2 -Ni 13 -Nx 442.00 -Ny 321.00 -Nz 0.00 -Ne -1.000000 -Nl RTR -Nw --- -Ma 0 -Md ffffffff -Ms 2 -Mt 800 -Is 2.255 -Id -1.255 -It AODV -Il 48 -If 0 -Ii 0 -Iv 30 -P aodv -Pt 0x2 -Ph 1 -Pb 1 -Pd 18 -Pds 0 -Ps 2 -Pss 4 -Pc REQUEST 
r -t 1.002407060 -Hs 6 -Hd -2 -Ni 6 -Nx 392.00 -Ny 371.00 -Nz 0.00 -Ne -1.000000 -Nl RTR -Nw --- -Ma 0 -Md ffffffff -Ms 2 -Mt 800 -Is 2.255 -Id -1.255 -It AODV -Il 48 -If 0 -Ii 0 -Iv 30 -P aodv -Pt 0x2 -Ph 1 -Pb 1 -Pd 18 -Pds 0 -Ps 2 -Pss 4 -Pc REQUEST 
r -t 1.002407060 -Hs 15 -Hd -2 -Ni 15 -Nx 542.00 -Ny 321.00 -Nz 0.00 -Ne -1.000000 -Nl RTR -Nw --- -Ma 0 -Md ffffffff -Ms 2 -Mt 800 -Is 2.255 -Id -1.255 -It AODV -Il 48 -If 0 -Ii 0 -Iv 30 -P aodv -Pt 0x2 -Ph 1 -Pb 1 -Pd 18 -Pds 0 -Ps 2 -Pss 4 -Pc REQUEST 
r -t 1.002407060 -Hs 10 -Hd -2 -Ni 10 -Nx 592.00 -Ny 371.00 -Nz 0.00 -Ne -1.000000 -Nl RTR -Nw --- -Ma 0 -Md ffffffff -Ms 2 -Mt 800 -Is 2.255 -Id -1.255 -It AODV -Il 48 -If 0 -Ii 0 -Iv 30 -P aodv -Pt 0x2 -Ph 1 -Pb 1 -Pd 18 -Pds 0 -Ps 2 -Pss 4 -Pc REQUEST 
r -t 1.002407159 -Hs 12 -Hd -2 -Ni 12 -Nx 392.00 -Ny 321.00 -Nz 0.00 -Ne -1.000000 -Nl RTR -Nw --- -Ma 0 -Md ffffffff -Ms 2 -Mt 800 -Is 2.255 -Id -1.255 -It AODV -Il 48 -If 0 -Ii 0 -Iv 30 -P aodv -Pt 0x2 -Ph 1 -Pb 1 -Pd 18 -Pds 0 -Ps 2 -Pss 4 -Pc REQUEST 
r -t 1.002407159 -Hs 16 -Hd -2 -Ni 16 -Nx 592.00 -Ny 321.00 -Nz 0.00 -Ne -1.000000 -Nl RTR -Nw --- -Ma 0 -Md ffffffff -Ms 2 -Mt 800 -Is 2.255 -Id -1.255 -It AODV -Il 48 -If 0 -Ii 0 -Iv 30 -P aodv -Pt 0x2 -Ph 1 -Pb 1 -Pd 18 -Pds 0 -Ps 2 -Pss 4 -Pc REQUEST 
r -t 1.002407187 -Hs 20 -Hd -2 -Ni 20 -Nx 492.00 -Ny 271.00 -Nz 0.00 -Ne -1.000000 -Nl RTR -Nw --- -Ma 0 -Md ffffffff -Ms 2 -Mt 800 -Is 2.255 -Id -1.255 -It AODV -Il 48 -If 0 -Ii 0 -Iv 30 -P aodv -Pt 0x2 -Ph 1 -Pb 1 -Pd 18 -Pds 0 -Ps 2 -Pss 4 -Pc REQUEST 
r -t 1.002407187 -Hs 5 -Hd -2 -Ni 5 -Nx 642.00 -Ny 421.00 -Nz 0.00 -Ne -1.000000 -Nl RTR -Nw --- -Ma 0 -Md ffffffff -Ms 2 -Mt 800 -Is 2.255 -Id -1.255 -It AODV -Il 48 -If 0 -Ii 0 -Iv 30 -P aodv -Pt 0x2 -Ph 1 -Pb 1 -Pd 18 -Pds 0 -Ps 2 -Pss 4 -Pc REQUEST 
r -t 1.002407214 -Hs 19 -Hd -2 -Ni 19 -Nx 442.00 -Ny 271.00 -Nz 0.00 -Ne -1.000000 -Nl RTR -Nw --- -Ma 0 -Md ffffffff -Ms 2 -Mt 800 -Is 2.255 -Id -1.255 -It AODV -Il 48 -If 0 -Ii 0 -Iv 30 -P aodv -Pt 0x2 -Ph 1 -Pb 1 -Pd 18 -Pds 0 -Ps 2 -Pss 4 -Pc REQUEST 
r -t 1.002407214 -Hs 21 -Hd -2 -Ni 21 -Nx 542.00 -Ny 271.00 -Nz 0.00 -Ne -1.000000 -Nl RTR -Nw --- -Ma 0 -Md ffffffff -Ms 2 -Mt 800 -Is 2.255 -Id -1.255 -It AODV -Il 48 -If 0 -Ii 0 -Iv 30 -P aodv -Pt 0x2 -Ph 1 -Pb 1 -Pd 18 -Pds 0 -Ps 2 -Pss 4 -Pc REQUEST 