s -t 1.000000000 -Hs 0 -Hd -2 -Ni 0 -Nx 322.00 -Ny 425.00 -Nz 0.00 -Ne -1.000000 -Nl AGT -Nw --- -Ma 0 -Md 0 -Ms 0 -Mt 0 -Is 0.0 -Id 19.0 -It tcp -Il 40 -If 0 -Ii 0 -Iv 32 -Pn tcp -Ps 0 -Pa 0 -Pf 0 -Po 0 
r -t 1.000000000 -Hs 0 -Hd -2 -Ni 0 -Nx 322.00 -Ny 425.00 -Nz 0.00 -Ne -1.000000 -Nl RTR -Nw --- -Ma 0 -Md 0 -Ms 0 -Mt 0 -Is 0.0 -Id 19.0 -It tcp -Il 40 -If 0 -Ii 0 -Iv 32 -Pn tcp -Ps 0 -Pa 0 -Pf 0 -Po 0 
s -t 1.000000000 -Hs 15 -Hd -2 -Ni 15 -Nx 322.00 -Ny 275.00 -Nz 0.00 -Ne -1.000000 -Nl AGT -Nw --- -Ma 0 -Md 0 -Ms 0 -Mt 0 -Is 15.0 -Id 4.0 -It tcp -Il 40 -If 0 -Ii 1 -Iv 32 -Pn tcp -Ps 0 -Pa 0 -Pf 0 -Po 0 
r -t 1.000000000 -Hs 15 -Hd -2 -Ni 15 -Nx 322.00 -Ny 275.00 -Nz 0.00 -Ne -1.000000 -Nl RTR -Nw --- -Ma 0 -Md 0 -Ms 0 -Mt 0 -Is 15.0 -Id 4.0 -It tcp -Il 40 -If 0 -Ii 1 -Iv 32 -Pn tcp -Ps 0 -Pa 0 -Pf 0 -Po 0 
s -t 1.000000000 -Hs 0 -Hd -2 -Ni 0 -Nx 322.00 -Ny 425.00 -Nz 0.00 -Ne -1.000000 -Nl RTR -Nw --- -Ma 0 -Md 0 -Ms 0 -Mt 0 -Is 0.255 -Id -1.255 -It AODV -Il 48 -If 0 -Ii 0 -Iv 30 -P aodv -Pt 0x2 -Ph 1 -Pb 1 -Pd 19 -Pds 0 -Ps 0 -Pss 4 -Pc REQUEST 
s -t 1.000000000 -Hs 15 -Hd -2 -Ni 15 -Nx 322.00 -Ny 275.00 -Nz 0.00 -Ne -1.000000 -Nl RTR -Nw --- -Ma 0 -Md 0 -Ms 0 -Mt 0 -Is 15.255 -Id -1.255 -It AODV -Il 48 -If 0 -Ii 0 -Iv 30 -P aodv -Pt 0x2 -Ph 1 -Pb 1 -Pd 4 -Pds 0 -Ps 15 -Pss 4 -Pc REQUEST 
s -t 1.000375000 -Hs 15 -Hd -2 -Ni 15 -Nx 322.00 -Ny 275.00 -Nz 0.00 -Ne -1.000000 -Nl MAC -Nw --- -Ma 0 -Md ffffffff -Ms f -Mt 800 -Is 15.255 -Id -1.255 -It AODV -Il 106 -If 0 -Ii 0 -Iv 30 -P aodv -Pt 0x2 -Ph 1 -Pb 1 -Pd 4 -Pds 0 -Ps 15 -Pss 4 -Pc REQUEST 
r -t 1.001223167 -Hs 10 -Hd -2 -Ni 10 -Nx 322.00 -Ny 325.00 -Nz 0.00 -Ne -1.000000 -Nl MAC -Nw --- -Ma 0 -Md ffffffff -Ms f -Mt 800 -Is 15.255 -Id -1.255 -It AODV -Il 48 -If 0 -Ii 0 -Iv 30 -P aodv -Pt 0x2 -Ph 1 -Pb 1 -Pd 4 -Pds 0 -Ps 15 -Pss 4 -Pc REQUEST 
r -t 1.001223167 -Hs 16 -Hd -2 -Ni 16 -Nx 372.00 -Ny 275.00 -Nz 0.00 -Ne -1.000000 -Nl MAC -Nw --- -Ma 0 -Md ffffffff -Ms f -Mt 800 -Is 15.255 -Id -1.255 -It AODV -Il 48 -If 0 -Ii 0 -Iv 30 -P aodv -Pt 0x2 -Ph 1 -Pb 1 -Pd 4 -Pds 0 -Ps 15 -Pss 4 -Pc REQUEST 
r -t 1.001223236 -Hs 11 -Hd -2 -Ni 11 -Nx 372.00 -Ny 325.00 -Nz 0.00 -Ne -1.000000 -Nl MAC -Nw --- -Ma 0 -Md ffffffff -Ms f -Mt 800 -Is 15.255 -Id -1.255 -It AODV -Il 48 -If 0 -Ii 0 -Iv 30 -P aodv -Pt 0x2 -Ph 1 -Pb 1 -Pd 4 -Pds 0 -Ps 15 -Pss 4 -Pc REQUEST 
r -t 1.001223333 -Hs 5 -Hd -2 -Ni 5 -Nx 322.00 -Ny 375.00 -Nz 0.00 -Ne -1.000000 -Nl MAC -Nw --- -Ma 0 -Md ffffffff -Ms f -Mt 800 -Is 15.255 -Id -1.255 -It AODV -Il 48 -If 0 -Ii 0 -Iv 30 -P aodv -Pt 0x2 -Ph 1 -Pb 1 -Pd 4 -Pds 0 -Ps 15 -Pss 4 -Pc REQUEST 
r -t 1.001223333 -Hs 17 -Hd -2 -Ni 17 -Nx 422.00 -Ny 275.00 -Nz 0.00 -Ne -1.000000 -Nl MAC -Nw --- -Ma 0 -Md ffffffff -Ms f -Mt 800 -Is 15.255 -Id -1.255 -It AODV -Il 48 -If 0 -Ii 0 -Iv 30 -P aodv -Pt 0x2 -Ph 1 -Pb 1 -Pd 4 -Pds 0 -Ps 15 -Pss 4 -Pc REQUEST 
r -t 1.001223373 -Hs 6 -Hd -2 -Ni 6 -Nx 372.00 -Ny 375.00 -Nz 0.00 -Ne -1.000000 -Nl MAC -Nw --- -Ma 0 -Md ffffffff -Ms f -Mt 800 -Is 15.255 -Id -1.255 -It AODV -Il 48 -If 0 -Ii 0 -Iv 30 -P aodv -Pt 0x2 -Ph 1 -Pb 1 -Pd 4 -Pds 0 -Ps 15 -Pss 4 -Pc REQUEST 
r -t 1.001223373 -Hs 12 -Hd -2 -Ni 12 -Nx 422.00 -Ny 325.00 -Nz 0.00 -Ne -1.000000 -Nl MAC -Nw --- -Ma 0 -Md ffffffff -Ms f -Mt 800 -Is 15.255 -Id -1.255 -It AODV -Il 48 -If 0 -Ii 0 -Iv 30 -P aodv -Pt 0x2 -Ph 1 -Pb 1 -Pd 4 -Pds 0 -Ps 15 -Pss 4 -Pc REQUEST 
r -t 1.001223471 -Hs 7 -Hd -2 -Ni 7 -Nx 422.00 -Ny 375.00 -Nz 0.00 -Ne -1.000000 -Nl MAC -Nw --- -Ma 0 -Md ffffffff -Ms f -Mt 800 -Is 15.255 -Id -1.255 -It AODV -Il 48 -If 0 -Ii 0 -Iv 30 -P aodv -Pt 0x2 -Ph 1 -Pb 1 -Pd 4 -Pds 0 -Ps 15 -Pss 4 -Pc REQUEST 
r -t 1.001223500 -Hs 0 -Hd -2 -Ni 0 -Nx 322.00 -Ny 425.00 -Nz 0.00 -Ne -1.000000 -Nl MAC -Nw --- -Ma 0 -Md ffffffff -Ms f -Mt 800 -Is 15.255 -Id -1.255 -It AODV -Il 48 -If 0 -Ii 0 -Iv 30 -P aodv -Pt 0x2 -Ph 1 -Pb 1 -Pd 4 -Pds 0 -Ps 15 -Pss 4 -Pc REQUEST 
r -t 1.001223500 -Hs 18 -Hd -2 -Ni 18 -Nx 472.00 -Ny 275.00 -Nz 0.00 -Ne -1.000000 -Nl MAC -Nw --- -Ma 0 -Md ffffffff -Ms f -Mt 800 -Is 15.255 -Id -1.255 -It AODV -Il 48 -If 0 -Ii 0 -Iv 30 -P aodv -Pt 0x2 -Ph 1 -Pb 1 -Pd 4 -Pds 0 -Ps 15 -Pss 4 -Pc REQUEST 
r -t 1.001223527 -Hs 1 -Hd -2 -Ni 1 -Nx 372.00 -Ny 425.00 -Nz 0.00 -Ne -1.000000 -Nl MAC -Nw --- -Ma 0 -Md ffffffff -Ms f -Mt 800 -Is 15.255 -Id -1.255 -It AODV -Il 48 -If 0 -Ii 0 -Iv 30 -P aodv -Pt 0x2 -Ph 1 -Pb 1 -Pd 4 -Pds 0 -Ps 15 -Pss 4 -Pc REQUEST 
r -t 1.001223527 -Hs 13 -Hd -2 -Ni 13 -Nx 472.00 -Ny 325.00 -Nz 0.00 -Ne -1.000000 -Nl MAC -Nw --- -Ma 0 -Md ffffffff -Ms f -Mt 800 -Is 15.255 -Id -1.255 -It AODV -Il 48 -If 0 -Ii 0 -Iv 30 -P aodv -Pt 0x2 -Ph 1 -Pb 1 -Pd 4 -Pds 0 -Ps 15 -Pss 4 -Pc REQUEST 
r -t 1.001223601 -Hs 2 -Hd -2 -Ni 2 -Nx 422.00 -Ny 425.00 -Nz 0.00 -Ne -1.000000 -Nl MAC -Nw --- -Ma 0 -Md ffffffff -Ms f -Mt 800 -Is 15.255 -Id -1.255 -It AODV -Il 48 -If 0 -Ii 0 -Iv 30 -P aodv -Pt 0x2 -Ph 1 -Pb 1 -Pd 4 -Pds 0 -Ps 15 -Pss 4 -Pc REQUEST 
r -t 1.001223601 -Hs 8 -Hd -2 -Ni 8 -Nx 472.00 -Ny 375.00 -Nz 0.00 -Ne -1.000000 -Nl MAC -Nw --- -Ma 0 -Md ffffffff -Ms f -Mt 800 -Is 15.255 -Id -1.255 -It AODV -Il 48 -If 0 -Ii 0 -Iv 30 -P aodv -Pt 0x2 -Ph 1 -Pb 1 -Pd 4 -Pds 0 -Ps 15 -Pss 4 -Pc REQUEST 
r -t 1.001223667 -Hs 19 -Hd -2 -Ni 19 -Nx 522.00 -Ny 275.00 -Nz 0.00 -Ne -1.000000 -Nl MAC -Nw --- -Ma 0 -Md ffffffff -Ms f -Mt 800 -Is 15.255 -Id -1.255 -It AODV -Il 48 -If 0 -Ii 0 -Iv 30 -P aodv -Pt 0x2 -Ph 1 -Pb 1 -Pd 4 -Pds 0 -Ps 15 -Pss 4 -Pc REQUEST 
r -t 1.001223687 -Hs 14 -Hd -2 -Ni 14 -Nx 522.00 -Ny 325.00 -Nz 0.00 -Ne -1.000000 -Nl MAC -Nw --- -Ma 0 -Md ffffffff -Ms f -Mt 800 -Is 15.255 -Id -1.255 -It AODV -Il 48 -If 0 -Ii 0 -Iv 30 -P aodv -Pt 0x2 -Ph 1 -Pb 1 -Pd 4 -Pds 0 -Ps 15 -Pss 4 -Pc REQUEST 
r -t 1.001223707 -Hs 3 -Hd -2 -Ni 3 -Nx 472.00 -Ny 425.00 -Nz 0.00 -Ne -1.000000 -Nl MAC -Nw --- -Ma 0 -Md ffffffff -Ms f -Mt 800 -Is 15.255 -Id -1.255 -It AODV -Il 48 -If 0 -Ii 0 -Iv 30 -P aodv -Pt 0x2 -Ph 1 -Pb 1 -Pd 4 -Pds 0 -Ps 15 -Pss 4 -Pc REQUEST 
r -t 1.001223745 -Hs 9 -Hd -2 -Ni 9 -Nx 522.00 -Ny 375.00 -Nz 0.00 -Ne -1.000000 -Nl MAC -Nw --- -Ma 0 -Md ffffffff -Ms f -Mt 800 -Is 15.255 -Id -1.255 -It AODV -Il 48 -If 0 -Ii 0 -Iv 30 -P aodv -Pt 0x2 -Ph 1 -Pb 1 -Pd 4 -Pds 0 -Ps 15 -Pss 4 -Pc REQUEST 
r -t 1.001223833 -Hs 4 -Hd -2 -Ni 4 -Nx 522.00 -Ny 425.00 -Nz 0.00 -Ne -1.000000 -Nl MAC -Nw --- -Ma 0 -Md ffffffff -Ms f -Mt 800 -Is 15.255 -Id -1.255 -It AODV -Il 48 -If 0 -Ii 0 -Iv 30 -P aodv -Pt 0x2 -Ph 1 -Pb 1 -Pd 4 -Pds 0 -Ps 15 -Pss 4 -Pc REQUEST 
r -t 1.001248167 -Hs 10 -Hd -2 -Ni 10 -Nx 322.00 -Ny 325.00 -Nz 0.00 -Ne -1.000000 -Nl RTR -Nw --- -Ma 0 -Md ffffffff -Ms f -Mt 800 -Is 15.255 -Id -1.255 -It AODV -Il 48 -If 0 -Ii 0 -Iv 30 -P aodv -Pt 0x2 -Ph 1 -Pb 1 -Pd 4 -Pds 0 -Ps 15 -Pss 4 -Pc REQUEST 
r -t 1.001248167 -Hs 16 -Hd -2 -Ni 16 -Nx 372.00 -Ny 275.00 -Nz 0.00 -Ne -1.000000 -Nl RTR -Nw --- -Ma 0 -Md ffffffff -Ms f -Mt 800 -Is 15.255 -Id -1.255 -It AODV -Il 48 -If 0 -Ii 0 -Iv 30 -P aodv -Pt 0x2 -Ph 1 -Pb 1 -Pd 4 -Pds 0 -Ps 15 -Pss 4 -Pc REQUEST 
r -t 1.001248236 -Hs 11 -Hd -2 -Ni 11 -Nx 372.00 -Ny 325.00 -Nz 0.00 -Ne -1.000000 -Nl RTR -Nw --- -Ma 0 -Md ffffffff -Ms f -Mt 800 -Is 15.255 -Id -1.255 -It AODV -Il 48 -If 0 -Ii 0 -Iv 30 -P aodv -Pt 0x2 -Ph 1 -Pb 1 -Pd 4 -Pds 0 -Ps 15 -Pss 4 -Pc REQUEST 
r -t 1.001248333 -Hs 5 -Hd -2 -Ni 5 -Nx 322.00 -Ny 375.00 -Nz 0.00 -Ne -1.000000 -Nl RTR -Nw --- -Ma 0 -Md ffffffff -Ms f -Mt 800 -Is 15.255 -Id -1.255 -It AODV -Il 48 -If 0 -Ii 0 -Iv 30 -P aodv -Pt 0x2 -Ph 1 -Pb 1 -Pd 4 -Pds 0 -Ps 15 -Pss 4 -Pc REQUEST 
r -t 1.001248333 -Hs 17 -Hd -2 -Ni 17 -Nx 422.00 -Ny 275.00 -Nz 0.00 -Ne -1.000000 -Nl RTR -Nw --- -Ma 0 -Md ffffffff -Ms f -Mt 800 -Is 15.255 -Id -1.255 -It AODV -Il 48 -If 0 -Ii 0 -Iv 30 -P aodv -Pt 0x2 -Ph 1 -Pb 1 -Pd 4 -Pds 0 -Ps 15 -Pss 4 -Pc REQUEST 
r -t 1.001248373 -Hs 6 -Hd -2 -Ni 6 -Nx 372.00 -Ny 375.00 -Nz 0.00 -Ne -1.000000 -Nl RTR -Nw --- -Ma 0 -Md ffffffff -Ms f -Mt 800 -Is 15.255 -Id -1.255 -It AODV -Il 48 -If 0 -Ii 0 -Iv 30 -P aodv -Pt 0x2 -Ph 1 -Pb 1 -Pd 4 -Pds 0 -Ps 15 -Pss 4 -Pc REQUEST 
r -t 1.001248373 -Hs 12 -Hd -2 -Ni 12 -Nx 422.00 -Ny 325.00 -Nz 0.00 -Ne -1.000000 -Nl RTR -Nw --- -Ma 0 -Md ffffffff -Ms f -Mt 800 -Is 15.255 -Id -1.255 -It AODV -Il 48 -If 0 -Ii 0 -Iv 30 -P aodv -Pt 0x2 -Ph 1 -Pb 1 -Pd 4 -Pds 0 -Ps 15 -Pss 4 -Pc REQUEST 
r -t 1.001248471 -Hs 7 -Hd -2 -Ni 7 -Nx 422.00 -Ny 375.00 -Nz 0.00 -Ne -1.000000 -Nl RTR -Nw --- -Ma 0 -Md ffffffff -Ms f -Mt 800 -Is 15.255 -Id -1.255 -It AODV -Il 48 -If 0 -Ii 0 -Iv 30 -P aodv -Pt 0x2 -Ph 1 -Pb 1 -Pd 4 -Pds 0 -Ps 15 -Pss 4 -Pc REQUEST 
r -t 1.001248500 -Hs 0 -Hd -2 -Ni 0 -Nx 322.00 -Ny 425.00 -Nz 0.00 -Ne -1.000000 -Nl RTR -Nw --- -Ma 0 -Md ffffffff -Ms f -Mt 800 -Is 15.255 -Id -1.255 -It AODV -Il 48 -If 0 -Ii 0 -Iv 30 -P aodv -Pt 0x2 -Ph 1 -Pb 1 -Pd 4 -Pds 0 -Ps 15 -Pss 4 -Pc REQUEST 
r -t 1.001248500 -Hs 18 -Hd -2 -Ni 18 -Nx 472.00 -Ny 275.00 -Nz 0.00 -Ne -1.000000 -Nl RTR -Nw --- -Ma 0 -Md ffffffff -Ms f -Mt 800 -Is 15.255 -Id -1.255 -It AODV -Il 48 -If 0 -Ii 0 -Iv 30 -P aodv -Pt 0x2 -Ph 1 -Pb 1 -Pd 4 -Pds 0 -Ps 15 -Pss 4 -Pc REQUEST 
r -t 1.001248527 -Hs 1 -Hd -2 -Ni 1 -Nx 372.00 -Ny 425.00 -Nz 0.00 -Ne -1.000000 -Nl RTR -Nw --- -Ma 0 -Md ffffffff -Ms f -Mt 800 -Is 15.255 -Id -1.255 -It AODV -Il 48 -If 0 -Ii 0 -Iv 30 -P aodv -Pt 0x2 -Ph 1 -Pb 1 -Pd 4 -Pds 0 -Ps 15 -Pss 4 -Pc REQUEST 
r -t 1.001248527 -Hs 13 -Hd -2 -Ni 13 -Nx 472.00 -Ny 325.00 -Nz 0.00 -Ne -1.000000 -Nl RTR -Nw --- -Ma 0 -Md ffffffff -Ms f -Mt 800 -Is 15.255 -Id -1.255 -It AODV -Il 48 -If 0 -Ii 0 -Iv 30 -P aodv -Pt 0x2 -Ph 1 -Pb 1 -Pd 4 -Pds 0 -Ps 15 -Pss 4 -Pc REQUEST 
r -t 1.001248601 -Hs 2 -Hd -2 -Ni 2 -Nx 422.00 -Ny 425.00 -Nz 0.00 -Ne -1.000000 -Nl RTR -Nw --- -Ma 0 -Md ffffffff -Ms f -Mt 800 -Is 15.255 -Id -1.255 -It AODV -Il 48 -If 0 -Ii 0 -Iv 30 -P aodv -Pt 0x2 -Ph 1 -Pb 1 -Pd 4 -Pds 0 -Ps 15 -Pss 4 -Pc REQUEST 
r -t 1.001248601 -Hs 8 -Hd -2 -Ni 8 -Nx 472.00 -Ny 375.00 -Nz 0.00 -Ne -1.000000 -Nl RTR -Nw --- -Ma 0 -Md ffffffff -Ms f -Mt 800 -Is 15.255 -Id -1.255 -It AODV -Il 48 -If 0 -Ii 0 -Iv 30 -P aodv -Pt 0x2 -Ph 1 -Pb 1 -Pd 4 -Pds 0 -Ps 15 -Pss 4 -Pc REQUEST 
r -t 1.001248667 -Hs 19 -Hd -2 -Ni 19 -Nx 522.00 -Ny 275.00 -Nz 0.00 -Ne -1.000000 -Nl RTR -Nw --- -Ma 0 -Md ffffffff -Ms f -Mt 800 -Is 15.255 -Id -1.255 -It AODV -Il 48 -If 0 -Ii 0 -Iv 30 -P aodv -Pt 0x2 -Ph 1 -Pb 1 -Pd 4 -Pds 0 -Ps 15 -Pss 4 -Pc REQUEST 
r -t 1.001248687 -Hs 14 -Hd -2 -Ni 14 -Nx 522.00 -Ny 325.00 -Nz 0.00 -Ne -1.000000 -Nl RTR -Nw --- -Ma 0 -Md ffffffff -Ms f -Mt 800 -Is 15.255 -Id -1.255 -It AODV -Il 48 -If 0 -Ii 0 -Iv 30 -P aodv -Pt 0x2 -Ph 1 -Pb 1 -Pd 4 -Pds 0 -Ps 15 -Pss 4 -Pc REQUEST 
r -t 1.001248707 -Hs 3 -Hd -2 -Ni 3 -Nx 472.00 -Ny 425.00 -Nz 0.00 -Ne -1.000000 -Nl RTR -Nw --- -Ma 0 -Md ffffffff -Ms f -Mt 800 -Is 15.255 -Id -1.255 -It AODV -Il 48 -If 0 -Ii 0 -Iv 30 -P aodv -Pt 0x2 -Ph 1 -Pb 1 -Pd 4 -Pds 0 -Ps 15 -Pss 4 -Pc REQUEST 
r -t 1.001248745 -Hs 9 -Hd -2 -Ni 9 -Nx 522.00 -Ny 375.00 -Nz 0.00 -Ne -1.000000 -Nl RTR -Nw --- -Ma 0 -Md ffffffff -Ms f -Mt 800 -Is 15.255 -Id -1.255 -It AODV -Il 48 -If 0 -Ii 0 -Iv 30 -P aodv -Pt 0x2 -Ph 1 -Pb 1 -Pd 4 -Pds 0 -Ps 15 -Pss 4 -Pc REQUEST 
r -t 1.001248833 -Hs 4 -Hd -2 -Ni 4 -Nx 522.00 -Ny 425.00 -Nz 0.00 -Ne -1.000000 -Nl RTR -Nw --- -Ma 0 -Md ffffffff -Ms f -Mt 800 -Is 15.255 -Id -1.255 -It AODV -Il 48 -If 0 -Ii 0 -Iv 30 -P aodv -Pt 0x2 -Ph 1 -Pb 1 -Pd 4 -Pds 0 -Ps 15 -Pss 4 -Pc REQUEST 
s -t 1.001248833 -Hs 4 -Hd 15 -Ni 4 -Nx 522.00 -Ny 425.00 -Nz 0.00 -Ne -1.000000 -Nl RTR -Nw --- -Ma 0 -Md 0 -Ms 0 -Mt 0 -Is 4.255 -Id 15.255 -It AODV -Il 44 -If 0 -Ii 0 -Iv 30 -P aodv -Pt 0x4 -Ph 1 -Pd 4 -Pds 4 -Pl 10.000000 -Pc REPLY 
s -t 1.001323833 -Hs 4 -Hd -2 -Ni 4 -Nx 522.00 -Ny 425.00 -Nz 0.00 -Ne -1.000000 -Nl MAC -Nw --- -Ma 0 -Md ffffffff -Ms 4 -Mt 806 -P arp -Po REQUEST -Pms 4 -Ps 4 -Pmd 0 -Pd 15 
s -t 1.001676446 -Hs 0 -Hd -2 -Ni 0 -Nx 322.00 -Ny 425.00 -Nz 0.00 -Ne -1.000000 -Nl RTR -Nw --- -Ma 0 -Md ffffffff -Ms f -Mt 800 -Is 0.255 -Id -1.255 -It AODV -Il 48 -If 0 -Ii 0 -Iv 29 -P aodv -Pt 0x2 -Ph 2 -Pb 1 -Pd 4 -Pds 0 -Ps 15 -Pss 4 -Pc REQUEST 
r -t 1.002012000 -Hs 3 -Hd -2 -Ni 3 -Nx 472.00 -Ny 425.00 -Nz 0.00 -Ne -1.000000 -Nl MAC -Nw --- -Ma 0 -Md ffffffff -Ms 4 -Mt 806 -P arp -Po REQUEST -Pms 4 -Ps 4 -Pmd 0 -Pd 15 
r -t 1.002012000 -Hs 9 -Hd -2 -Ni 9 -Nx 522.00 -Ny 375.00 -Nz 0.00 -Ne -1.000000 -Nl MAC -Nw --- -Ma 0 -Md ffffffff -Ms 4 -Mt 806 -P arp -Po REQUEST -Pms 4 -Ps 4 -Pmd 0 -Pd 15 
r -t 1.002012069 -Hs 8 -Hd -2 -Ni 8 -Nx 472.00 -Ny 375.00 -Nz 0.00 -Ne -1.000000 -Nl MAC -Nw --- -Ma 0 -Md ffffffff -Ms 4 -Mt 806 -P arp -Po REQUEST -Pms 4 -Ps 4 -Pmd 0 -Pd 15 
r -t 1.002012167 -Hs 2 -Hd -2 -Ni 2 -Nx 422.00 -Ny 425.00 -Nz 0.00 -Ne -1.000000 -Nl MAC -Nw --- -Ma 0 -Md ffffffff -Ms 4 -Mt 806 -P arp -Po REQUEST -Pms 4 -Ps 4 -Pmd 0 -Pd 15 
r -t 1.002012167 -Hs 14 -Hd -2 -Ni 14 -Nx 522.00 -Ny 325.00 -Nz 0.00 -Ne -1.000000 -Nl MAC -Nw --- -Ma 0 -Md ffffffff -Ms 4 -Mt 806 -P arp -Po REQUEST -Pms 4 -Ps 4 -Pmd 0 -Pd 15 
r -t 1.002012206 -Hs 13 -Hd -2 -Ni 13 -Nx 472.00 -Ny 325.00 -Nz 0.00 -Ne -1.000000 -Nl MAC -Nw --- -Ma 0 -Md ffffffff -Ms 4 -Mt 806 -P arp -Po REQUEST -Pms 4 -Ps 4 -Pmd 0 -Pd 15 
r -t 1.002012206 -Hs 7 -Hd -2 -Ni 7 -Nx 422.00 -Ny 375.00 -Nz 0.00 -Ne -1.000000 -Nl MAC -Nw --- -Ma 0 -Md ffffffff -Ms 4 -Mt 806 -P arp -Po REQUEST -Pms 4 -Ps 4 -Pmd 0 -Pd 15 
r -t 1.002012305 -Hs 12 -Hd -2 -Ni 12 -Nx 422.00 -Ny 325.00 -Nz 0.00 -Ne -1.000000 -Nl MAC -Nw --- -Ma 0 -Md ffffffff -Ms 4 -Mt 806 -P arp -Po REQUEST -Pms 4 -Ps 4 -Pmd 0 -Pd 15 
r -t 1.002012333 -Hs 1 -Hd -2 -Ni 1 -Nx 372.00 -Ny 425.00 -Nz 0.00 -Ne -1.000000 -Nl MAC -Nw --- -Ma 0 -Md ffffffff -Ms 4 -Mt 806 -P arp -Po REQUEST -Pms 4 -Ps 4 -Pmd 0 -Pd 15 
r -t 1.002012333 -Hs 19 -Hd -2 -Ni 19 -Nx 522.00 -Ny 275.00 -Nz 0.00 -Ne -1.000000 -Nl MAC -Nw --- -Ma 0 -Md ffffffff -Ms 4 -Mt 806 -P arp -Po REQUEST -Pms 4 -Ps 4 -Pmd 0 -Pd 15 
r -t 1.002012360 -Hs 18 -Hd -2 -Ni 18 -Nx 472.00 -Ny 275.00 -Nz 0.00 -Ne -1.000000 -Nl MAC -Nw --- -Ma 0 -Md ffffffff -Ms 4 -Mt 806 -P arp -Po REQUEST -Pms 4 -Ps 4 -Pmd 0 -Pd 15 
r -t 1.002012360 -Hs 6 -Hd -2 -Ni 6 -Nx 372.00 -Ny 375.00 -Nz 0.00 -Ne -1.000000 -Nl MAC -Nw --- -Ma 0 -Md ffffffff -Ms 4 -Mt 806 -P arp -Po REQUEST -Pms 4 -Ps 4 -Pmd 0 -Pd 15 
r -t 1.002012434 -Hs 17 -Hd -2 -Ni 17 -Nx 422.00 -Ny 275.00 -Nz 0.00 -Ne -1.000000 -Nl MAC -Nw --- -Ma 0 -Md ffffffff -Ms 4 -Mt 806 -P arp -Po REQUEST -Pms 4 -Ps 4 -Pmd 0 -Pd 15 
r -t 1.002012434 -Hs 11 -Hd -2 -Ni 11 -Nx 372.00 -Ny 325.00 -Nz 0.00 -Ne -1.000000 -Nl MAC -Nw --- -Ma 0 -Md ffffffff -Ms 4 -Mt 806 -P arp -Po REQUEST -Pms 4 -Ps 4 -Pmd 0 -Pd 15 
r -t 1.002012500 -Hs 0 -Hd -2 -Ni 0 -Nx 322.00 -Ny 425.00 -Nz 0.00 -Ne -1.000000 -Nl MAC -Nw --- -Ma 0 -Md ffffffff -Ms 4 -Mt 806 -P arp -Po REQUEST -Pms 4 -Ps 4 -Pmd 0 -Pd 15 
r -t 1.002012521 -Hs 5 -Hd -2 -Ni 5 -Nx 322.00 -Ny 375.00 -Nz 0.00 -Ne -1.000000 -Nl MAC -Nw --- -Ma 0 -Md ffffffff -Ms 4 -Mt 806 -P arp -Po REQUEST -Pms 4 -Ps 4 -Pmd 0 -Pd 15 
r -t 1.002012540 -Hs 16 -Hd -2 -Ni 16 -Nx 372.00 -Ny 275.00 -Nz 0.00 -Ne -1.000000 -Nl MAC -Nw --- -Ma 0 -Md ffffffff -Ms 4 -Mt 806 -P arp -Po REQUEST -Pms 4 -Ps 4 -Pmd 0 -Pd 15 
r -t 1.002012579 -Hs 10 -Hd -2 -Ni 10 -Nx 322.00 -Ny 325.00 -Nz 0.00 -Ne -1.000000 -Nl MAC -Nw --- -Ma 0 -Md ffffffff -Ms 4 -Mt 806 -P arp -Po REQUEST -Pms 4 -Ps 4 -Pmd 0 -Pd 15 
r -t 1.002012667 -Hs 15 -Hd -2 -Ni 15 -Nx 322.00 -Ny 275.00 -Nz 0.00 -Ne -1.000000 -Nl MAC -Nw --- -Ma 0 -Md ffffffff -Ms 4 -Mt 806 -P arp -Po REQUEST -Pms 4 -Ps 4 -Pmd 0 -Pd 15 
s -t 1.002190055 -Hs 19 -Hd -2 -Ni 19 -Nx 522.00 -Ny 275.00 -Nz 0.00 -Ne -1.000000 -Nl RTR -Nw --- -Ma 0 -Md ffffffff -Ms f -Mt 800 -Is 19.255 -Id -1.255 -It AODV -Il 48 -If 0 -Ii 0 -Iv 29 -P aodv -Pt 0x2 -Ph 2 -Pb 1 -Pd 4 -Pds 0 -Ps 15 -Pss 4 -Pc REQUEST 
s -t 1.002282500 -Hs 0 -Hd -2 -Ni 0 -Nx 322.00 -Ny 425.00 -Nz 0.00 -Ne -1.000000 -Nl MAC -Nw --- -Ma 0 -Md ffffffff -Ms 0 -Mt 800 -Is 0.255 -Id -1.255 -It AODV -Il 106 -If 0 -Ii 0 -Iv 30 -P aodv -Pt 0x2 -Ph 1 -Pb 1 -Pd 19 -Pds 0 -Ps 0 -Pss 4 -Pc REQUEST 
s -t 1.002386610 -Hs 1 -Hd -2 -Ni 1 -Nx 372.00 -Ny 425.00 -Nz 0.00 -Ne -1.000000 -Nl RTR -Nw --- -Ma 0 -Md ffffffff -Ms f -Mt 800 -Is 1.255 -Id -1.255 -It AODV -Il 48 -If 0 -Ii 0 -Iv 29 -P aodv -Pt 0x2 -Ph 2 -Pb 1 -Pd 4 -Pds 0 -Ps 15 -Pss 4 -Pc REQUEST 
s -t 1.002889925 -Hs 7 -Hd -2 -Ni 7 -Nx 422.00 -Ny 375.00 -Nz 0.00 -Ne -1.000000 -Nl RTR -Nw --- -Ma 0 -Md ffffffff -Ms f -Mt 800 -Is 7.255 -Id -1.255 -It AODV -Il 48 -If 0 -Ii 0 -Iv 29 -P aodv -Pt 0x2 -Ph 2 -Pb 1 -Pd 4 -Pds 0 -Ps 15 -Pss 4 -Pc REQUEST 
s -t 1.002996653 -Hs 8 -Hd -2 -Ni 8 -Nx 472.00 -Ny 375.00 -Nz 0.00 -Ne -1.000000 -Nl RTR -Nw --- -Ma 0 -Md ffffffff -Ms f -Mt 800 -Is 8.255 -Id -1.255 -It AODV -Il 48 -If 0 -Ii 0 -Iv 29 -P aodv -Pt 0x2 -Ph 2 -Pb 1 -Pd 4 -Pds 0 -Ps 15 -Pss 4 -Pc REQUEST 
r -t 1.003130667 -Hs 5 -Hd -2 -Ni 5 -Nx 322.00 -Ny 375.00 -Nz 0.00 -Ne -1.000000 -Nl MAC -Nw --- -Ma 0 -Md ffffffff -Ms 0 -Mt 800 -Is 0.255 -Id -1.255 -It AODV -Il 48 -If 0 -Ii 0 -Iv 30 -P aodv -Pt 0x2 -Ph 1 -Pb 1 -Pd 19 -Pds 0 -Ps 0 -Pss 4 -Pc REQUEST 
r -t 1.003130667 -Hs 1 -Hd -2 -Ni 1 -Nx 372.00 -Ny 425.00 -Nz 0.00 -Ne -1.000000 -Nl MAC -Nw --- -Ma 0 -Md ffffffff -Ms 0 -Mt 800 -Is 0.255 -Id -1.255 -It AODV -Il 48 -If 0 -Ii 0 -Iv 30 -P aodv -Pt 0x2 -Ph 1 -Pb 1 -Pd 19 -Pds 0 -Ps 0 -Pss 4 -Pc REQUEST 
r -t 1.003130736 -Hs 6 -Hd -2 -Ni 6 -Nx 372.00 -Ny 375.00 -Nz 0.00 -Ne -1.000000 -Nl MAC -Nw --- -Ma 0 -Md ffffffff -Ms 0 -Mt 800 -Is 0.255 -Id -1.255 -It AODV -Il 48 -If 0 -Ii 0 -Iv 30 -P aodv -Pt 0x2 -Ph 1 -Pb 1 -Pd 19 -Pds 0 -Ps 0 -Pss 4 -Pc REQUEST 
r -t 1.003130833 -Hs 10 -Hd -2 -Ni 10 -Nx 322.00 -Ny 325.00 -Nz 0.00 -Ne -1.000000 -Nl MAC -Nw --- -Ma 0 -Md ffffffff -Ms 0 -Mt 800 -Is 0.255 -Id -1.255 -It AODV -Il 48 -If 0 -Ii 0 -Iv 30 -P aodv -Pt 0x2 -Ph 1 -Pb 1 -Pd 19 -Pds 0 -Ps 0 -Pss 4 -Pc REQUEST 
r -t 1.003130833 -Hs 2 -Hd -2 -Ni 2 -Nx 422.00 -Ny 425.00 -Nz 0.00 -Ne -1.000000 -Nl MAC -Nw --- -Ma 0 -Md ffffffff -Ms 0 -Mt 800 -Is 0.255 -Id -1.255 -It AODV -Il 48 -If 0 -Ii 0 -Iv 30 -P aodv -Pt 0x2 -Ph 1 -Pb 1 -Pd 19 -Pds 0 -Ps 0 -Pss 4 -Pc REQUEST 
r -t 1.003130873 -Hs 11 -Hd -2 -Ni 11 -Nx 372.00 -Ny 325.00 -Nz 0.00 -Ne -1.000000 -Nl MAC -Nw --- -Ma 0 -Md ffffffff -Ms 0 -Mt 800 -Is 0.255 -Id -1.255 -It AODV -Il 48 -If 0 -Ii 0 -Iv 30 -P aodv -Pt 0x2 -Ph 1 -Pb 1 -Pd 19 -Pds 0 -Ps 0 -Pss 4 -Pc REQUEST 
r -t 1.003130873 -Hs 7 -Hd -2 -Ni 7 -Nx 422.00 -Ny 375.00 -Nz 0.00 -Ne -1.000000 -Nl MAC -Nw --- -Ma 0 -Md ffffffff -Ms 0 -Mt 800 -Is 0.255 -Id -1.255 -It AODV -Il 48 -If 0 -Ii 0 -Iv 30 -P aodv -Pt 0x2 -Ph 1 -Pb 1 -Pd 19 -Pds 0 -Ps 0 -Pss 4 -Pc REQUEST 
r -t 1.003130971 -Hs 12 -Hd -2 -Ni 12 -Nx 422.00 -Ny 325.00 -Nz 0.00 -Ne -1.000000 -Nl MAC -Nw --- -Ma 0 -Md ffffffff -Ms 0 -Mt 800 -Is 0.255 -Id -1.255 -It AODV -Il 48 -If 0 -Ii 0 -Iv 30 -P aodv -Pt 0x2 -Ph 1 -Pb 1 -Pd 19 -Pds 0 -Ps 0 -Pss 4 -Pc REQUEST 
r -t 1.003131000 -Hs 15 -Hd -2 -Ni 15 -Nx 322.00 -Ny 275.00 -Nz 0.00 -Ne -1.000000 -Nl MAC -Nw --- -Ma 0 -Md ffffffff -Ms 0 -Mt 800 -Is 0.255 -Id -1.255 -It AODV -Il 48 -If 0 -Ii 0 -Iv 30 -P aodv -Pt 0x2 -Ph 1 -Pb 1 -Pd 19 -Pds 0 -Ps 0 -Pss 4 -Pc REQUEST 
r -t 1.003131000 -Hs 3 -Hd -2 -Ni 3 -Nx 472.00 -Ny 425.00 -Nz 0.00 -Ne -1.000000 -Nl MAC -Nw --- -Ma 0 -Md ffffffff -Ms 0 -Mt 800 -Is 0.255 -Id -1.255 -It AODV -Il 48 -If 0 -Ii 0 -Iv 30 -P aodv -Pt 0x2 -Ph 1 -Pb 1 -Pd 19 -Pds 0 -Ps 0 -Pss 4 -Pc REQUEST 
r -t 1.003131027 -Hs 16 -Hd -2 -Ni 16 -Nx 372.00 -Ny 275.00 -Nz 0.00 -Ne -1.000000 -Nl MAC -Nw --- -Ma 0 -Md ffffffff -Ms 0 -Mt 800 -Is 0.255 -Id -1.255 -It AODV -Il 48 -If 0 -Ii 0 -Iv 30 -P aodv -Pt 0x2 -Ph 1 -Pb 1 -Pd 19 -Pds 0 -Ps 0 -Pss 4 -Pc REQUEST 
r -t 1.003131027 -Hs 8 -Hd -2 -Ni 8 -Nx 472.00 -Ny 375.00 -Nz 0.00 -Ne -1.000000 -Nl MAC -Nw --- -Ma 0 -Md ffffffff -Ms 0 -Mt 800 -Is 0.255 -Id -1.255 -It AODV -Il 48 -If 0 -Ii 0 -Iv 30 -P aodv -Pt 0x2 -Ph 1 -Pb 1 -Pd 19 -Pds 0 -Ps 0 -Pss 4 -Pc REQUEST 
r -t 1.003131101 -Hs 17 -Hd -2 -Ni 17 -Nx 422.00 -Ny 275.00 -Nz 0.00 -Ne -1.000000 -Nl MAC -Nw --- -Ma 0 -Md ffffffff -Ms 0 -Mt 800 -Is 0.255 -Id -1.255 -It AODV -Il 48 -If 0 -Ii 0 -Iv 30 -P aodv -Pt 0x2 -Ph 1 -Pb 1 -Pd 19 -Pds 0 -Ps 0 -Pss 4 -Pc REQUEST 
r -t 1.003131101 -Hs 13 -Hd -2 -Ni 13 -Nx 472.00 -Ny 325.00 -Nz 0.00 -Ne -1.000000 -Nl MAC -Nw --- -Ma 0 -Md ffffffff -Ms 0 -Mt 800 -Is 0.255 -Id -1.255 -It AODV -Il 48 -If 0 -Ii 0 -Iv 30 -P aodv -Pt 0x2 -Ph 1 -Pb 1 -Pd 19 -Pds 0 -Ps 0 -Pss 4 -Pc REQUEST 
r -t 1.003131167 -Hs 4 -Hd -2 -Ni 4 -Nx 522.00 -Ny 425.00 -Nz 0.00 -Ne -1.000000 -Nl MAC -Nw --- -Ma 0 -Md ffffffff -Ms 0 -Mt 800 -Is 0.255 -Id -1.255 -It AODV -Il 48 -If 0 -Ii 0 -Iv 30 -P aodv -Pt 0x2 -Ph 1 -Pb 1 -Pd 19 -Pds 0 -Ps 0 -Pss 4 -Pc REQUEST 
r -t 1.003131187 -Hs 9 -Hd -2 -Ni 9 -Nx 522.00 -Ny 375.00 -Nz 0.00 -Ne -1.000000 -Nl MAC -Nw --- -Ma 0 -Md ffffffff -Ms 0 -Mt 800 -Is 0.255 -Id -1.255 -It AODV -Il 48 -If 0 -Ii 0 -Iv 30 -P aodv -Pt 0x2 -Ph 1 -Pb 1 -Pd 19 -Pds 0 -Ps 0 -Pss 4 -Pc REQUEST 
r -t 1.003131207 -Hs 18 -Hd -2 -Ni 18 -Nx 472.00 -Ny 275.00 -Nz 0.00 -Ne -1.000000 -Nl MAC -Nw --- -Ma 0 -Md ffffffff -Ms 0 -Mt 800 -Is 0.255 -Id -1.255 -It AODV -Il 48 -If 0 -Ii 0 -Iv 30 -P aodv -Pt 0x2 -Ph 1 -Pb 1 -Pd 19 -Pds 0 -Ps 0 -Pss 4 -Pc REQUEST 
r -t 1.003131245 -Hs 14 -Hd -2 -Ni 14 -Nx 522.00 -Ny 325.00 -Nz 0.00 -Ne -1.000000 -Nl MAC -Nw --- -Ma 0 -Md ffffffff -Ms 0 -Mt 800 -Is 0.255 -Id -1.255 -It AODV -Il 48 -If 0 -Ii 0 -Iv 30 -P aodv -Pt 0x2 -Ph 1 -Pb 1 -Pd 19 -Pds 0 -Ps 0 -Pss 4 -Pc REQUEST 
r -t 1.003131333 -Hs 19 -Hd -2 -Ni 19 -Nx 522.00 -Ny 275.00 -Nz 0.00 -Ne -1.000000 -Nl MAC -Nw --- -Ma 0 -Md ffffffff -Ms 0 -Mt 800 -Is 0.255 -Id -1.255 -It AODV -Il 48 -If 0 -Ii 0 -Iv 30 -P aodv -Pt 0x2 -Ph 1 -Pb 1 -Pd 19 -Pds 0 -Ps 0 -Pss 4 -Pc REQUEST 
r -t 1.003155667 -Hs 5 -Hd -2 -Ni 5 -Nx 322.00 -Ny 375.00 -Nz 0.00 -Ne -1.000000 -Nl RTR -Nw --- -Ma 0 -Md ffffffff -Ms 0 -Mt 800 -Is 0.255 -Id -1.255 -It AODV -Il 48 -If 0 -Ii 0 -Iv 30 -P aodv -Pt 0x2 -Ph 1 -Pb 1 -Pd 19 -Pds 0 -Ps 0 -Pss 4 -Pc REQUEST 
r -t 1.003155667 -Hs 1 -Hd -2 -Ni 1 -Nx 372.00 -Ny 425.00 -Nz 0.00 -Ne -1.000000 -Nl RTR -Nw --- -Ma 0 -Md ffffffff -Ms 0 -Mt 800 -Is 0.255 -Id -1.255 -It AODV -Il 48 -If 0 -Ii 0 -Iv 30 -P aodv -Pt 0x2 -Ph 1 -Pb 1 -Pd 19 -Pds 0 -Ps 0 -Pss 4 -Pc REQUEST 
r -t 1.003155736 -Hs 6 -Hd -2 -Ni 6 -Nx 372.00 -Ny 375.00 -Nz 0.00 -Ne -1.000000 -Nl RTR -Nw --- -Ma 0 -Md ffffffff -Ms 0 -Mt 800 -Is 0.255 -Id -1.255 -It AODV -Il 48 -If 0 -Ii 0 -Iv 30 -P aodv -Pt 0x2 -Ph 1 -Pb 1 -Pd 19 -Pds 0 -Ps 0 -Pss 4 -Pc REQUEST 
r -t 1.003155833 -Hs 10 -Hd -2 -Ni 10 -Nx 322.00 -Ny 325.00 -Nz 0.00 -Ne -1.000000 -Nl RTR -Nw --- -Ma 0 -Md ffffffff -Ms 0 -Mt 800 -Is 0.255 -Id -1.255 -It AODV -Il 48 -If 0 -Ii 0 -Iv 30 -P aodv -Pt 0x2 -Ph 1 -Pb 1 -Pd 19 -Pds 0 -Ps 0 -Pss 4 -Pc REQUEST 
r -t 1.003155833 -Hs 2 -Hd -2 -Ni 2 -Nx 422.00 -Ny 425.00 -Nz 0.00 -Ne -1.000000 -Nl RTR -Nw --- -Ma 0 -Md ffffffff -Ms 0 -Mt 800 -Is 0.255 -Id -1.255 -It AODV -Il 48 -If 0 -Ii 0 -Iv 30 -P aodv -Pt 0x2 -Ph 1 -Pb 1 -Pd 19 -Pds 0 -Ps 0 -Pss 4 -Pc REQUEST 
r -t 1.003155873 -Hs 11 -Hd -2 -Ni 11 -Nx 372.00 -Ny 325.00 -Nz 0.00 -Ne -1.000000 -Nl RTR -Nw --- -Ma 0 -Md ffffffff -Ms 0 -Mt 800 -Is 0.255 -Id -1.255 -It AODV -Il 48 -If 0 -Ii 0 -Iv 30 -P aodv -Pt 0x2 -Ph 1 -Pb 1 -Pd 19 -Pds 0 -Ps 0 -Pss 4 -Pc REQUEST 
r -t 1.003155873 -Hs 7 -Hd -2 -Ni 7 -Nx 422.00 -Ny 375.00 -Nz 0.00 -Ne -1.000000 -Nl RTR -Nw --- -Ma 0 -Md ffffffff -Ms 0 -Mt 800 -Is 0.255 -Id -1.255 -It AODV -Il 48 -If 0 -Ii 0 -Iv 30 -P aodv -Pt 0x2 -Ph 1 -Pb 1 -Pd 19 -Pds 0 -Ps 0 -Pss 4 -Pc REQUEST 
r -t 1.003155971 -Hs 12 -Hd -2 -Ni 12 -Nx 422.00 -Ny 325.00 -Nz 0.00 -Ne -1.000000 -Nl RTR -Nw --- -Ma 0 -Md ffffffff -Ms 0 -Mt 800 -Is 0.255 -Id -1.255 -It AODV -Il 48 -If 0 -Ii 0 -Iv 30 -P aodv -Pt 0x2 -Ph 1 -Pb 1 -Pd 19 -Pds 0 -Ps 0 -Pss 4 -Pc REQUEST 
r -t 1.003156000 -Hs 15 -Hd -2 -Ni 15 -Nx 322.00 -Ny 275.00 -Nz 0.00 -Ne -1.000000 -Nl RTR -Nw --- -Ma 0 -Md ffffffff -Ms 0 -Mt 800 -Is 0.255 -Id -1.255 -It AODV -Il 48 -If 0 -Ii 0 -Iv 30 -P aodv -Pt 0x2 -Ph 1 -Pb 1 -Pd 19 -Pds 0 -Ps 0 -Pss 4 -Pc REQUEST 
r -t 1.003156000 -Hs 3 -Hd -2 -Ni 3 -Nx 472.00 -Ny 425.00 -Nz 0.00 -Ne -1.000000 -Nl RTR -Nw --- -Ma 0 -Md ffffffff -Ms 0 -Mt 800 -Is 0.255 -Id -1.255 -It AODV -Il 48 -If 0 -Ii 0 -Iv 30 -P aodv -Pt 0x2 -Ph 1 -Pb 1 -Pd 19 -Pds 0 -Ps 0 -Pss 4 -Pc REQUEST 
r -t 1.003156027 -Hs 16 -Hd -2 -Ni 16 -Nx 372.00 -Ny 275.00 -Nz 0.00 -Ne -1.000000 -Nl RTR -Nw --- -Ma 0 -Md ffffffff -Ms 0 -Mt 800 -Is 0.255 -Id -1.255 -It AODV -Il 48 -If 0 -Ii 0 -Iv 30 -P aodv -Pt 0x2 -Ph 1 -Pb 1 -Pd 19 -Pds 0 -Ps 0 -Pss 4 -Pc REQUEST 
r -t 1.003156027 -Hs 8 -Hd -2 -Ni 8 -Nx 472.00 -Ny 375.00 -Nz 0.00 -Ne -1.000000 -Nl RTR -Nw --- -Ma 0 -Md ffffffff -Ms 0 -Mt 800 -Is 0.255 -Id -1.255 -It AODV -Il 48 -If 0 -Ii 0 -Iv 30 -P aodv -Pt 0x2 -Ph 1 -Pb 1 -Pd 19 -Pds 0 -Ps 0 -Pss 4 -Pc REQUEST 
r -t 1.003156101 -Hs 17 -Hd -2 -Ni 17 -Nx 422.00 -Ny 275.00 -Nz 0.00 -Ne -1.000000 -Nl RTR -Nw --- -Ma 0 -Md ffffffff -Ms 0 -Mt 800 -Is 0.255 -Id -1.255 -It AODV -Il 48 -If 0 -Ii 0 -Iv 30 -P aodv -Pt 0x2 -Ph 1 -Pb 1 -Pd 19 -Pds 0 -Ps 0 -Pss 4 -Pc REQUEST 
r -t 1.003156101 -Hs 13 -Hd -2 -Ni 13 -Nx 472.00 -Ny 325.00 -Nz 0.00 -Ne -1.000000 -Nl RTR -Nw --- -Ma 0 -Md ffffffff -Ms 0 -Mt 800 -Is 0.255 -Id -1.255 -It AODV -Il 48 -If 0 -Ii 0 -Iv 30 -P aodv -Pt 0x2 -Ph 1 -Pb 1 -Pd 19 -Pds 0 -Ps 0 -Pss 4 -Pc REQUEST 
r -t 1.003156167 -Hs 4 -Hd -2 -Ni 4 -Nx 522.00 -Ny 425.00 -Nz 0.00 -Ne -1.000000 -Nl RTR -Nw --- -Ma 0 -Md ffffffff -Ms 0 -Mt 800 -Is 0.255 -Id -1.255 -It AODV -Il 48 -If 0 -Ii 0 -Iv 30 -P aodv -Pt 0x2 -Ph 1 -Pb 1 -Pd 19 -Pds 0 -Ps 0 -Pss 4 -Pc REQUEST 
r -t 1.003156187 -Hs 9 -Hd -2 -Ni 9 -Nx 522.00 -Ny 375.00 -Nz 0.00 -Ne -1.000000 -Nl RTR -Nw --- -Ma 0 -Md ffffffff -Ms 0 -Mt 800 -Is 0.255 -Id -1.255 -It AODV -Il 48 -If 0 -Ii 0 -Iv 30 -P aodv -Pt 0x2 -Ph 1 -Pb 1 -Pd 19 -Pds 0 -Ps 0 -Pss 4 -Pc REQUEST 
r -t 1.003156207 -Hs 18 -Hd -2 -Ni 18 -Nx 472.00 -Ny 275.00 -Nz 0.00 -Ne -1.000000 -Nl RTR -Nw --- -Ma 0 -Md ffffffff -Ms 0 -Mt 800 -Is 0.255 -Id -1.255 -It AODV -Il 48 -If 0 -Ii 0 -Iv 30 -P aodv -Pt 0x2 -Ph 1 -Pb 1 -Pd 19 -Pds 0 -Ps 0 -Pss 4 -Pc REQUEST 
r -t 1.003156245 -Hs 14 -Hd -2 -Ni 14 -Nx 522.00 -Ny 325.00 -Nz 0.00 -Ne -1.000000 -Nl RTR -Nw --- -Ma 0 -Md ffffffff -Ms 0 -Mt 800 -Is 0.255 -Id -1.255 -It AODV -Il 48 -If 0 -Ii 0 -Iv 30 -P aodv -Pt 0x2 -Ph 1 -Pb 1 -Pd 19 -Pds 0 -Ps 0 -Pss 4 -Pc REQUEST 
r -t 1.003156333 -Hs 19 -Hd -2 -Ni 19 -Nx 522.00 -Ny 275.00 -Nz 0.00 -Ne -1.000000 -Nl RTR -Nw --- -Ma 0 -Md ffffffff -Ms 0 -Mt 800 -Is 0.255 -Id -1.255 -It AODV -Il 48 -If 0 -Ii 0 -Iv 30 -P aodv -Pt 0x2 -Ph 1 -Pb 1 -Pd 19 -Pds 0 -Ps 0 -Pss 4 -Pc REQUEST 
s -t 1.003156333 -Hs 19 -Hd 0 -Ni 19 -Nx 522.00 -Ny 275.00 -Nz 0.00 -Ne -1.000000 -Nl RTR -Nw --- -Ma 0 -Md 0 -Ms 0 -Mt 0 -Is 19.255 -Id 0.255 -It AODV -Il 44 -If 0 -Ii 0 -Iv 30 -P aodv -Pt 0x4 -Ph 1 -Pd 19 -Pds 4 -Pl 10.000000 -Pc REPLY 
s -t 1.003241000 -Hs 15 -Hd -2 -Ni 15 -Nx 322.00 -Ny 275.00 -Nz 0.00 -Ne -1.000000 -Nl MAC -Nw --- -Ma 52e -Md 4 -Ms f -Mt 0 
s -t 1.003264250 -Hs 4 -Hd -2 -Ni 4 -Nx 522.00 -Ny 425.00 -Nz 0.00 -Ne -1.000000 -Nl RTR -Nw --- -Ma 0 -Md ffffffff -Ms 0 -Mt 800 -Is 4.255 -Id -1.255 -It AODV -Il 48 -If 0 -Ii 0 -Iv 29 -P aodv -Pt 0x2 -Ph 2 -Pb 1 -Pd 19 -Pds 0 -Ps 0 -Pss 4 -Pc REQUEST 
r -t 1.003593833 -Hs 4 -Hd -2 -Ni 4 -Nx 522.00 -Ny 425.00 -Nz 0.00 -Ne -1.000000 -Nl MAC -Nw --- -Ma 52e -Md 4 -Ms f -Mt 0 
s -t 1.003594351 -Hs 5 -Hd -2 -Ni 5 -Nx 322.00 -Ny 375.00 -Nz 0.00 -Ne -1.000000 -Nl RTR -Nw --- -Ma 0 -Md ffffffff -Ms f -Mt 800 -Is 5.255 -Id -1.255 -It AODV -Il 48 -If 0 -Ii 0 -Iv 29 -P aodv -Pt 0x2 -Ph 2 -Pb 1 -Pd 4 -Pds 0 -Ps 15 -Pss 4 -Pc REQUEST 
s -t 1.003603833 -Hs 4 -Hd -2 -Ni 4 -Nx 522.00 -Ny 425.00 -Nz 0.00 -Ne -1.000000 -Nl MAC -Nw --- -Ma 3f4 -Md f -Ms 0 -Mt 0 
s -t 1.003740127 -Hs 13 -Hd -2 -Ni 13 -Nx 472.00 -Ny 325.00 -Nz 0.00 -Ne -1.000000 -Nl RTR -Nw --- -Ma 0 -Md ffffffff -Ms 0 -Mt 800 -Is 13.255 -Id -1.255 -It AODV -Il 48 -If 0 -Ii 0 -Iv 29 -P aodv -Pt 0x2 -Ph 2 -Pb 1 -Pd 19 -Pds 0 -Ps 0 -Pss 4 -Pc REQUEST 
s -t 1.003829625 -Hs 9 -Hd -2 -Ni 9 -Nx 522.00 -Ny 375.00 -Nz 0.00 -Ne -1.000000 -Nl RTR -Nw --- -Ma 0 -Md ffffffff -Ms f -Mt 800 -Is 9.255 -Id -1.255 -It AODV -Il 48 -If 0 -Ii 0 -Iv 29 -P aodv -Pt 0x2 -Ph 2 -Pb 1 -Pd 4 -Pds 0 -Ps 15 -Pss 4 -Pc REQUEST 
r -t 1.003908667 -Hs 15 -Hd -2 -Ni 15 -Nx 322.00 -Ny 275.00 -Nz 0.00 -Ne -1.000000 -Nl MAC -Nw --- -Ma 3f4 -Md f -Ms 0 -Mt 0 
s -t 1.003918667 -Hs 15 -Hd -2 -Ni 15 -Nx 322.00 -Ny 275.00 -Nz 0.00 -Ne -1.000000 -Nl MAC -Nw --- -Ma 13a -Md 4 -Ms f -Mt 806 -P arp -Po REPLY -Pms 15 -Ps 15 -Pmd 4 -Pd 4 
s -t 1.004247857 -Hs 7 -Hd -2 -Ni 7 -Nx 422.00 -Ny 375.00 -Nz 0.00 -Ne -1.000000 -Nl RTR -Nw --- -Ma 0 -Md ffffffff -Ms 0 -Mt 800 -Is 7.255 -Id -1.255 -It AODV -Il 48 -If 0 -Ii 0 -Iv 29 -P aodv -Pt 0x2 -Ph 2 -Pb 1 -Pd 19 -Pds 0 -Ps 0 -Pss 4 -Pc REQUEST 
s -t 1.004276414 -Hs 17 -Hd -2 -Ni 17 -Nx 422.00 -Ny 275.00 -Nz 0.00 -Ne -1.000000 -Nl RTR -Nw --- -Ma 0 -Md ffffffff -Ms 0 -Mt 800 -Is 17.255 -Id -1.255 -It AODV -Il 48 -If 0 -Ii 0 -Iv 29 -P aodv -Pt 0x2 -Ph 2 -Pb 1 -Pd 19 -Pds 0 -Ps 0 -Pss 4 -Pc REQUEST 
s -t 1.004339163 -Hs 6 -Hd -2 -Ni 6 -Nx 372.00 -Ny 375.00 -Nz 0.00 -Ne -1.000000 -Nl RTR -Nw --- -Ma 0 -Md ffffffff -Ms f -Mt 800 -Is 6.255 -Id -1.255 -It AODV -Il 48 -If 0 -Ii 0 -Iv 29 -P aodv -Pt 0x2 -Ph 2 -Pb 1 -Pd 4 -Pds 0 -Ps 15 -Pss 4 -Pc REQUEST 
s -t 1.004377784 -Hs 16 -Hd -2 -Ni 16 -Nx 372.00 -Ny 275.00 -Nz 0.00 -Ne -1.000000 -Nl RTR -Nw --- -Ma 0 -Md ffffffff -Ms f -Mt 800 -Is 16.255 -Id -1.255 -It AODV -Il 48 -If 0 -Ii 0 -Iv 29 -P aodv -Pt 0x2 -Ph 2 -Pb 1 -Pd 4 -Pds 0 -Ps 15 -Pss 4 -Pc REQUEST 
s -t 1.004387280 -Hs 14 -Hd -2 -Ni 14 -Nx 522.00 -Ny 325.00 -Nz 0.00 -Ne -1.000000 -Nl RTR -Nw --- -Ma 0 -Md ffffffff -Ms 0 -Mt 800 -Is 14.255 -Id -1.255 -It AODV -Il 48 -If 0 -Ii 0 -Iv 29 -P aodv -Pt 0x2 -Ph 2 -Pb 1 -Pd 19 -Pds 0 -Ps 0 -Pss 4 -Pc REQUEST 
r -t 1.004607500 -Hs 4 -Hd -2 -Ni 4 -Nx 522.00 -Ny 425.00 -Nz 0.00 -Ne -1.000000 -Nl MAC -Nw --- -Ma 13a -Md 4 -Ms f -Mt 806 -P arp -Po REPLY -Pms 15 -Ps 15 -Pmd 4 -Pd 4 
s -t 1.004617500 -Hs 4 -Hd -2 -Ni 4 -Nx 522.00 -Ny 425.00 -Nz 0.00 -Ne -1.000000 -Nl MAC -Nw --- -Ma 0 -Md f -Ms 0 -Mt 0 