s -t 1.000000000 -Hs 0 -Hd -2 -Ni 0 -Nx 289.00 -Ny 394.00 -Nz 0.00 -Ne -1.000000 -Nl AGT -Nw --- -Ma 0 -Md 0 -Ms 0 -Mt 0 -Is 0.0 -Id 9.0 -It tcp -Il 40 -If 0 -Ii 0 -Iv 32 -Pn tcp -Ps 0 -Pa 0 -Pf 0 -Po 0 
r -t 1.000000000 -Hs 0 -Hd -2 -Ni 0 -Nx 289.00 -Ny 394.00 -Nz 0.00 -Ne -1.000000 -Nl RTR -Nw --- -Ma 0 -Md 0 -Ms 0 -Mt 0 -Is 0.0 -Id 9.0 -It tcp -Il 40 -If 0 -Ii 0 -Iv 32 -Pn tcp -Ps 0 -Pa 0 -Pf 0 -Po 0 
s -t 1.000000000 -Hs 5 -Hd -2 -Ni 5 -Nx 289.00 -Ny 344.00 -Nz 0.00 -Ne -1.000000 -Nl AGT -Nw --- -Ma 0 -Md 0 -Ms 0 -Mt 0 -Is 5.0 -Id 4.0 -It tcp -Il 40 -If 0 -Ii 1 -Iv 32 -Pn tcp -Ps 0 -Pa 0 -Pf 0 -Po 0 
r -t 1.000000000 -Hs 5 -Hd -2 -Ni 5 -Nx 289.00 -Ny 344.00 -Nz 0.00 -Ne -1.000000 -Nl RTR -Nw --- -Ma 0 -Md 0 -Ms 0 -Mt 0 -Is 5.0 -Id 4.0 -It tcp -Il 40 -If 0 -Ii 1 -Iv 32 -Pn tcp -Ps 0 -Pa 0 -Pf 0 -Po 0 
s -t 1.000000000 -Hs 0 -Hd -2 -Ni 0 -Nx 289.00 -Ny 394.00 -Nz 0.00 -Ne -1.000000 -Nl RTR -Nw --- -Ma 0 -Md 0 -Ms 0 -Mt 0 -Is 0.255 -Id -1.255 -It AODV -Il 48 -If 0 -Ii 0 -Iv 30 -P aodv -Pt 0x2 -Ph 1 -Pb 1 -Pd 9 -Pds 0 -Ps 0 -Pss 4 -Pc REQUEST 
s -t 1.000000000 -Hs 5 -Hd -2 -Ni 5 -Nx 289.00 -Ny 344.00 -Nz 0.00 -Ne -1.000000 -Nl RTR -Nw --- -Ma 0 -Md 0 -Ms 0 -Mt 0 -Is 5.255 -Id -1.255 -It AODV -Il 48 -If 0 -Ii 0 -Iv 30 -P aodv -Pt 0x2 -Ph 1 -Pb 1 -Pd 4 -Pds 0 -Ps 5 -Pss 4 -Pc REQUEST 
s -t 1.000375000 -Hs 5 -Hd -2 -Ni 5 -Nx 289.00 -Ny 344.00 -Nz 0.00 -Ne -1.000000 -Nl MAC -Nw --- -Ma 0 -Md ffffffff -Ms 5 -Mt 800 -Is 5.255 -Id -1.255 -It AODV -Il 106 -If 0 -Ii 0 -Iv 30 -P aodv -Pt 0x2 -Ph 1 -Pb 1 -Pd 4 -Pds 0 -Ps 5 -Pss 4 -Pc REQUEST 
r -t 1.001223167 -Hs 0 -Hd -2 -Ni 0 -Nx 289.00 -Ny 394.00 -Nz 0.00 -Ne -1.000000 -Nl MAC -Nw --- -Ma 0 -Md ffffffff -Ms 5 -Mt 800 -Is 5.255 -Id -1.255 -It AODV -Il 48 -If 0 -Ii 0 -Iv 30 -P aodv -Pt 0x2 -Ph 1 -Pb 1 -Pd 4 -Pds 0 -Ps 5 -Pss 4 -Pc REQUEST 
r -t 1.001223167 -Hs 6 -Hd -2 -Ni 6 -Nx 339.00 -Ny 344.00 -Nz 0.00 -Ne -1.000000 -Nl MAC -Nw --- -Ma 0 -Md ffffffff -Ms 5 -Mt 800 -Is 5.255 -Id -1.255 -It AODV -Il 48 -If 0 -Ii 0 -Iv 30 -P aodv -Pt 0x2 -Ph 1 -Pb 1 -Pd 4 -Pds 0 -Ps 5 -Pss 4 -Pc REQUEST 
r -t 1.001223236 -Hs 1 -Hd -2 -Ni 1 -Nx 339.00 -Ny 394.00 -Nz 0.00 -Ne -1.000000 -Nl MAC -Nw --- -Ma 0 -Md ffffffff -Ms 5 -Mt 800 -Is 5.255 -Id -1.255 -It AODV -Il 48 -If 0 -Ii 0 -Iv 30 -P aodv -Pt 0x2 -Ph 1 -Pb 1 -Pd 4 -Pds 0 -Ps 5 -Pss 4 -Pc REQUEST 
r -t 1.001223333 -Hs 7 -Hd -2 -Ni 7 -Nx 389.00 -Ny 344.00 -Nz 0.00 -Ne -1.000000 -Nl MAC -Nw --- -Ma 0 -Md ffffffff -Ms 5 -Mt 800 -Is 5.255 -Id -1.255 -It AODV -Il 48 -If 0 -Ii 0 -Iv 30 -P aodv -Pt 0x2 -Ph 1 -Pb 1 -Pd 4 -Pds 0 -Ps 5 -Pss 4 -Pc REQUEST 
r -t 1.001223373 -Hs 2 -Hd -2 -Ni 2 -Nx 389.00 -Ny 394.00 -Nz 0.00 -Ne -1.000000 -Nl MAC -Nw --- -Ma 0 -Md ffffffff -Ms 5 -Mt 800 -Is 5.255 -Id -1.255 -It AODV -Il 48 -If 0 -Ii 0 -Iv 30 -P aodv -Pt 0x2 -Ph 1 -Pb 1 -Pd 4 -Pds 0 -Ps 5 -Pss 4 -Pc REQUEST 
r -t 1.001223500 -Hs 8 -Hd -2 -Ni 8 -Nx 439.00 -Ny 344.00 -Nz 0.00 -Ne -1.000000 -Nl MAC -Nw --- -Ma 0 -Md ffffffff -Ms 5 -Mt 800 -Is 5.255 -Id -1.255 -It AODV -Il 48 -If 0 -Ii 0 -Iv 30 -P aodv -Pt 0x2 -Ph 1 -Pb 1 -Pd 4 -Pds 0 -Ps 5 -Pss 4 -Pc REQUEST 
r -t 1.001223527 -Hs 3 -Hd -2 -Ni 3 -Nx 439.00 -Ny 394.00 -Nz 0.00 -Ne -1.000000 -Nl MAC -Nw --- -Ma 0 -Md ffffffff -Ms 5 -Mt 800 -Is 5.255 -Id -1.255 -It AODV -Il 48 -If 0 -Ii 0 -Iv 30 -P aodv -Pt 0x2 -Ph 1 -Pb 1 -Pd 4 -Pds 0 -Ps 5 -Pss 4 -Pc REQUEST 
r -t 1.001223667 -Hs 9 -Hd -2 -Ni 9 -Nx 489.00 -Ny 344.00 -Nz 0.00 -Ne -1.000000 -Nl MAC -Nw --- -Ma 0 -Md ffffffff -Ms 5 -Mt 800 -Is 5.255 -Id -1.255 -It AODV -Il 48 -If 0 -Ii 0 -Iv 30 -P aodv -Pt 0x2 -Ph 1 -Pb 1 -Pd 4 -Pds 0 -Ps 5 -Pss 4 -Pc REQUEST 
r -t 1.001223687 -Hs 4 -Hd -2 -Ni 4 -Nx 489.00 -Ny 394.00 -Nz 0.00 -Ne -1.000000 -Nl MAC -Nw --- -Ma 0 -Md ffffffff -Ms 5 -Mt 800 -Is 5.255 -Id -1.255 -It AODV -Il 48 -If 0 -Ii 0 -Iv 30 -P aodv -Pt 0x2 -Ph 1 -Pb 1 -Pd 4 -Pds 0 -Ps 5 -Pss 4 -Pc REQUEST 
r -t 1.001248167 -Hs 0 -Hd -2 -Ni 0 -Nx 289.00 -Ny 394.00 -Nz 0.00 -Ne -1.000000 -Nl RTR -Nw --- -Ma 0 -Md ffffffff -Ms 5 -Mt 800 -Is 5.255 -Id -1.255 -It AODV -Il 48 -If 0 -Ii 0 -Iv 30 -P aodv -Pt 0x2 -Ph 1 -Pb 1 -Pd 4 -Pds 0 -Ps 5 -Pss 4 -Pc REQUEST 
r -t 1.001248167 -Hs 6 -Hd -2 -Ni 6 -Nx 339.00 -Ny 344.00 -Nz 0.00 -Ne -1.000000 -Nl RTR -Nw --- -Ma 0 -Md ffffffff -Ms 5 -Mt 800 -Is 5.255 -Id -1.255 -It AODV -Il 48 -If 0 -Ii 0 -Iv 30 -P aodv -Pt 0x2 -Ph 1 -Pb 1 -Pd 4 -Pds 0 -Ps 5 -Pss 4 -Pc REQUEST 
r -t 1.001248236 -Hs 1 -Hd -2 -Ni 1 -Nx 339.00 -Ny 394.00 -Nz 0.00 -Ne -1.000000 -Nl RTR -Nw --- -Ma 0 -Md ffffffff -Ms 5 -Mt 800 -Is 5.255 -Id -1.255 -It AODV -Il 48 -If 0 -Ii 0 -Iv 30 -P aodv -Pt 0x2 -Ph 1 -Pb 1 -Pd 4 -Pds 0 -Ps 5 -Pss 4 -Pc REQUEST 
r -t 1.001248333 -Hs 7 -Hd -2 -Ni 7 -Nx 389.00 -Ny 344.00 -Nz 0.00 -Ne -1.000000 -Nl RTR -Nw --- -Ma 0 -Md ffffffff -Ms 5 -Mt 800 -Is 5.255 -Id -1.255 -It AODV -Il 48 -If 0 -Ii 0 -Iv 30 -P aodv -Pt 0x2 -Ph 1 -Pb 1 -Pd 4 -Pds 0 -Ps 5 -Pss 4 -Pc REQUEST 
r -t 1.001248373 -Hs 2 -Hd -2 -Ni 2 -Nx 389.00 -Ny 394.00 -Nz 0.00 -Ne -1.000000 -Nl RTR -Nw --- -Ma 0 -Md ffffffff -Ms 5 -Mt 800 -Is 5.255 -Id -1.255 -It AODV -Il 48 -If 0 -Ii 0 -Iv 30 -P aodv -Pt 0x2 -Ph 1 -Pb 1 -Pd 4 -Pds 0 -Ps 5 -Pss 4 -Pc REQUEST 
r -t 1.001248500 -Hs 8 -Hd -2 -Ni 8 -Nx 439.00 -Ny 344.00 -Nz 0.00 -Ne -1.000000 -Nl RTR -Nw --- -Ma 0 -Md ffffffff -Ms 5 -Mt 800 -Is 5.255 -Id -1.255 -It AODV -Il 48 -If 0 -Ii 0 -Iv 30 -P aodv -Pt 0x2 -Ph 1 -Pb 1 -Pd 4 -Pds 0 -Ps 5 -Pss 4 -Pc REQUEST 
r -t 1.001248527 -Hs 3 -Hd -2 -Ni 3 -Nx 439.00 -Ny 394.00 -Nz 0.00 -Ne -1.000000 -Nl RTR -Nw --- -Ma 0 -Md ffffffff -Ms 5 -Mt 800 -Is 5.255 -Id -1.255 -It AODV -Il 48 -If 0 -Ii 0 -Iv 30 -P aodv -Pt 0x2 -Ph 1 -Pb 1 -Pd 4 -Pds 0 -Ps 5 -Pss 4 -Pc REQUEST 
r -t 1.001248667 -Hs 9 -Hd -2 -Ni 9 -Nx 489.00 -Ny 344.00 -Nz 0.00 -Ne -1.000000 -Nl RTR -Nw --- -Ma 0 -Md ffffffff -Ms 5 -Mt 800 -Is 5.255 -Id -1.255 -It AODV -Il 48 -If 0 -Ii 0 -Iv 30 -P aodv -Pt 0x2 -Ph 1 -Pb 1 -Pd 4 -Pds 0 -Ps 5 -Pss 4 -Pc REQUEST 
r -t 1.001248687 -Hs 4 -Hd -2 -Ni 4 -Nx 489.00 -Ny 394.00 -Nz 0.00 -Ne -1.000000 -Nl RTR -Nw --- -Ma 0 -Md ffffffff -Ms 5 -Mt 800 -Is 5.255 -Id -1.255 -It AODV -Il 48 -If 0 -Ii 0 -Iv 30 -P aodv -Pt 0x2 -Ph 1 -Pb 1 -Pd 4 -Pds 0 -Ps 5 -Pss 4 -Pc REQUEST 
s -t 1.001248687 -Hs 4 -Hd 5 -Ni 4 -Nx 489.00 -Ny 394.00 -Nz 0.00 -Ne -1.000000 -Nl RTR -Nw --- -Ma 0 -Md 0 -Ms 0 -Mt 0 -Is 4.255 -Id 5.255 -It AODV -Il 44 -If 0 -Ii 0 -Iv 30 -P aodv -Pt 0x4 -Ph 1 -Pd 4 -Pds 4 -Pl 10.000000 -Pc REPLY 
s -t 1.001533167 -Hs 0 -Hd -2 -Ni 0 -Nx 289.00 -Ny 394.00 -Nz 0.00 -Ne -1.000000 -Nl MAC -Nw --- -Ma 0 -Md ffffffff -Ms 0 -Mt 800 -Is 0.255 -Id -1.255 -It AODV -Il 106 -If 0 -Ii 0 -Iv 30 -P aodv -Pt 0x2 -Ph 1 -Pb 1 -Pd 9 -Pds 0 -Ps 0 -Pss 4 -Pc REQUEST 
r -t 1.002381333 -Hs 5 -Hd -2 -Ni 5 -Nx 289.00 -Ny 344.00 -Nz 0.00 -Ne -1.000000 -Nl MAC -Nw --- -Ma 0 -Md ffffffff -Ms 0 -Mt 800 -Is 0.255 -Id -1.255 -It AODV -Il 48 -If 0 -Ii 0 -Iv 30 -P aodv -Pt 0x2 -Ph 1 -Pb 1 -Pd 9 -Pds 0 -Ps 0 -Pss 4 -Pc REQUEST 
r -t 1.002381333 -Hs 1 -Hd -2 -Ni 1 -Nx 339.00 -Ny 394.00 -Nz 0.00 -Ne -1.000000 -Nl MAC -Nw --- -Ma 0 -Md ffffffff -Ms 0 -Mt 800 -Is 0.255 -Id -1.255 -It AODV -Il 48 -If 0 -Ii 0 -Iv 30 -P aodv -Pt 0x2 -Ph 1 -Pb 1 -Pd 9 -Pds 0 -Ps 0 -Pss 4 -Pc REQUEST 
r -t 1.002381402 -Hs 6 -Hd -2 -Ni 6 -Nx 339.00 -Ny 344.00 -Nz 0.00 -Ne -1.000000 -Nl MAC -Nw --- -Ma 0 -Md ffffffff -Ms 0 -Mt 800 -Is 0.255 -Id -1.255 -It AODV -Il 48 -If 0 -Ii 0 -Iv 30 -P aodv -Pt 0x2 -Ph 1 -Pb 1 -Pd 9 -Pds 0 -Ps 0 -Pss 4 -Pc REQUEST 
r -t 1.002381500 -Hs 2 -Hd -2 -Ni 2 -Nx 389.00 -Ny 394.00 -Nz 0.00 -Ne -1.000000 -Nl MAC -Nw --- -Ma 0 -Md ffffffff -Ms 0 -Mt 800 -Is 0.255 -Id -1.255 -It AODV -Il 48 -If 0 -Ii 0 -Iv 30 -P aodv -Pt 0x2 -Ph 1 -Pb 1 -Pd 9 -Pds 0 -Ps 0 -Pss 4 -Pc REQUEST 
r -t 1.002381539 -Hs 7 -Hd -2 -Ni 7 -Nx 389.00 -Ny 344.00 -Nz 0.00 -Ne -1.000000 -Nl MAC -Nw --- -Ma 0 -Md ffffffff -Ms 0 -Mt 800 -Is 0.255 -Id -1.255 -It AODV -Il 48 -If 0 -Ii 0 -Iv 30 -P aodv -Pt 0x2 -Ph 1 -Pb 1 -Pd 9 -Pds 0 -Ps 0 -Pss 4 -Pc REQUEST 
r -t 1.002381667 -Hs 3 -Hd -2 -Ni 3 -Nx 439.00 -Ny 394.00 -Nz 0.00 -Ne -1.000000 -Nl MAC -Nw --- -Ma 0 -Md ffffffff -Ms 0 -Mt 800 -Is 0.255 -Id -1.255 -It AODV -Il 48 -If 0 -Ii 0 -Iv 30 -P aodv -Pt 0x2 -Ph 1 -Pb 1 -Pd 9 -Pds 0 -Ps 0 -Pss 4 -Pc REQUEST 
r -t 1.002381694 -Hs 8 -Hd -2 -Ni 8 -Nx 439.00 -Ny 344.00 -Nz 0.00 -Ne -1.000000 -Nl MAC -Nw --- -Ma 0 -Md ffffffff -Ms 0 -Mt 800 -Is 0.255 -Id -1.255 -It AODV -Il 48 -If 0 -Ii 0 -Iv 30 -P aodv -Pt 0x2 -Ph 1 -Pb 1 -Pd 9 -Pds 0 -Ps 0 -Pss 4 -Pc REQUEST 
r -t 1.002381833 -Hs 4 -Hd -2 -Ni 4 -Nx 489.00 -Ny 394.00 -Nz 0.00 -Ne -1.000000 -Nl MAC -Nw --- -Ma 0 -Md ffffffff -Ms 0 -Mt 800 -Is 0.255 -Id -1.255 -It AODV -Il 48 -If 0 -Ii 0 -Iv 30 -P aodv -Pt 0x2 -Ph 1 -Pb 1 -Pd 9 -Pds 0 -Ps 0 -Pss 4 -Pc REQUEST 
r -t 1.002381854 -Hs 9 -Hd -2 -Ni 9 -Nx 489.00 -Ny 344.00 -Nz 0.00 -Ne -1.000000 -Nl MAC -Nw --- -Ma 0 -Md ffffffff -Ms 0 -Mt 800 -Is 0.255 -Id -1.255 -It AODV -Il 48 -If 0 -Ii 0 -Iv 30 -P aodv -Pt 0x2 -Ph 1 -Pb 1 -Pd 9 -Pds 0 -Ps 0 -Pss 4 -Pc REQUEST 
r -t 1.002406333 -Hs 5 -Hd -2 -Ni 5 -Nx 289.00 -Ny 344.00 -Nz 0.00 -Ne -1.000000 -Nl RTR -Nw --- -Ma 0 -Md ffffffff -Ms 0 -Mt 800 -Is 0.255 -Id -1.255 -It AODV -Il 48 -If 0 -Ii 0 -Iv 30 -P aodv -Pt 0x2 -Ph 1 -Pb 1 -Pd 9 -Pds 0 -Ps 0 -Pss 4 -Pc REQUEST 
r -t 1.002406333 -Hs 1 -Hd -2 -Ni 1 -Nx 339.00 -Ny 394.00 -Nz 0.00 -Ne -1.000000 -Nl RTR -Nw --- -Ma 0 -Md ffffffff -Ms 0 -Mt 800 -Is 0.255 -Id -1.255 -It AODV -Il 48 -If 0 -Ii 0 -Iv 30 -P aodv -Pt 0x2 -Ph 1 -Pb 1 -Pd 9 -Pds 0 -Ps 0 -Pss 4 -Pc REQUEST 
r -t 1.002406402 -Hs 6 -Hd -2 -Ni 6 -Nx 339.00 -Ny 344.00 -Nz 0.00 -Ne -1.000000 -Nl RTR -Nw --- -Ma 0 -Md ffffffff -Ms 0 -Mt 800 -Is 0.255 -Id -1.255 -It AODV -Il 48 -If 0 -Ii 0 -Iv 30 -P aodv -Pt 0x2 -Ph 1 -Pb 1 -Pd 9 -Pds 0 -Ps 0 -Pss 4 -Pc REQUEST 
r -t 1.002406500 -Hs 2 -Hd -2 -Ni 2 -Nx 389.00 -Ny 394.00 -Nz 0.00 -Ne -1.000000 -Nl RTR -Nw --- -Ma 0 -Md ffffffff -Ms 0 -Mt 800 -Is 0.255 -Id -1.255 -It AODV -Il 48 -If 0 -Ii 0 -Iv 30 -P aodv -Pt 0x2 -Ph 1 -Pb 1 -Pd 9 -Pds 0 -Ps 0 -Pss 4 -Pc REQUEST 
r -t 1.002406539 -Hs 7 -Hd -2 -Ni 7 -Nx 389.00 -Ny 344.00 -Nz 0.00 -Ne -1.000000 -Nl RTR -Nw --- -Ma 0 -Md ffffffff -Ms 0 -Mt 800 -Is 0.255 -Id -1.255 -It AODV -Il 48 -If 0 -Ii 0 -Iv 30 -P aodv -Pt 0x2 -Ph 1 -Pb 1 -Pd 9 -Pds 0 -Ps 0 -Pss 4 -Pc REQUEST 
r -t 1.002406667 -Hs 3 -Hd -2 -Ni 3 -Nx 439.00 -Ny 394.00 -Nz 0.00 -Ne -1.000000 -Nl RTR -Nw --- -Ma 0 -Md ffffffff -Ms 0 -Mt 800 -Is 0.255 -Id -1.255 -It AODV -Il 48 -If 0 -Ii 0 -Iv 30 -P aodv -Pt 0x2 -Ph 1 -Pb 1 -Pd 9 -Pds 0 -Ps 0 -Pss 4 -Pc REQUEST 
r -t 1.002406694 -Hs 8 -Hd -2 -Ni 8 -Nx 439.00 -Ny 344.00 -Nz 0.00 -Ne -1.000000 -Nl RTR -Nw --- -Ma 0 -Md ffffffff -Ms 0 -Mt 800 -Is 0.255 -Id -1.255 -It AODV -Il 48 -If 0 -Ii 0 -Iv 30 -P aodv -Pt 0x2 -Ph 1 -Pb 1 -Pd 9 -Pds 0 -Ps 0 -Pss 4 -Pc REQUEST 
r -t 1.002406833 -Hs 4 -Hd -2 -Ni 4 -Nx 489.00 -Ny 394.00 -Nz 0.00 -Ne -1.000000 -Nl RTR -Nw --- -Ma 0 -Md ffffffff -Ms 0 -Mt 800 -Is 0.255 -Id -1.255 -It AODV -Il 48 -If 0 -Ii 0 -Iv 30 -P aodv -Pt 0x2 -Ph 1 -Pb 1 -Pd 9 -Pds 0 -Ps 0 -Pss 4 -Pc REQUEST 
r -t 1.002406854 -Hs 9 -Hd -2 -Ni 9 -Nx 489.00 -Ny 344.00 -Nz 0.00 -Ne -1.000000 -Nl RTR -Nw --- -Ma 0 -Md ffffffff -Ms 0 -Mt 800 -Is 0.255 -Id -1.255 -It AODV -Il 48 -If 0 -Ii 0 -Iv 30 -P aodv -Pt 0x2 -Ph 1 -Pb 1 -Pd 9 -Pds 0 -Ps 0 -Pss 4 -Pc REQUEST 
s -t 1.002406854 -Hs 9 -Hd 0 -Ni 9 -Nx 489.00 -Ny 344.00 -Nz 0.00 -Ne -1.000000 -Nl RTR -Nw --- -Ma 0 -Md 0 -Ms 0 -Mt 0 -Is 9.255 -Id 0.255 -It AODV -Il 44 -If 0 -Ii 0 -Iv 30 -P aodv -Pt 0x4 -Ph 1 -Pd 9 -Pds 4 -Pl 10.000000 -Pc REPLY 
s -t 1.002481854 -Hs 9 -Hd -2 -Ni 9 -Nx 489.00 -Ny 344.00 -Nz 0.00 -Ne -1.000000 -Nl MAC -Nw --- -Ma 0 -Md ffffffff -Ms 9 -Mt 806 -P arp -Po REQUEST -Pms 9 -Ps 9 -Pmd 0 -Pd 0 
s -t 1.002890121 -Hs 9 -Hd -2 -Ni 9 -Nx 489.00 -Ny 344.00 -Nz 0.00 -Ne -1.000000 -Nl RTR -Nw --- -Ma 0 -Md ffffffff -Ms 5 -Mt 800 -Is 9.255 -Id -1.255 -It AODV -Il 48 -If 0 -Ii 0 -Iv 29 -P aodv -Pt 0x2 -Ph 2 -Pb 1 -Pd 4 -Pds 0 -Ps 5 -Pss 4 -Pc REQUEST 
r -t 1.003170021 -Hs 4 -Hd -2 -Ni 4 -Nx 489.00 -Ny 394.00 -Nz 0.00 -Ne -1.000000 -Nl MAC -Nw --- -Ma 0 -Md ffffffff -Ms 9 -Mt 806 -P arp -Po REQUEST -Pms 9 -Ps 9 -Pmd 0 -Pd 0 
r -t 1.003170021 -Hs 8 -Hd -2 -Ni 8 -Nx 439.00 -Ny 344.00 -Nz 0.00 -Ne -1.000000 -Nl MAC -Nw --- -Ma 0 -Md ffffffff -Ms 9 -Mt 806 -P arp -Po REQUEST -Pms 9 -Ps 9 -Pmd 0 -Pd 0 
r -t 1.003170090 -Hs 3 -Hd -2 -Ni 3 -Nx 439.00 -Ny 394.00 -Nz 0.00 -Ne -1.000000 -Nl MAC -Nw --- -Ma 0 -Md ffffffff -Ms 9 -Mt 806 -P arp -Po REQUEST -Pms 9 -Ps 9 -Pmd 0 -Pd 0 
r -t 1.003170187 -Hs 7 -Hd -2 -Ni 7 -Nx 389.00 -Ny 344.00 -Nz 0.00 -Ne -1.000000 -Nl MAC -Nw --- -Ma 0 -Md ffffffff -Ms 9 -Mt 806 -P arp -Po REQUEST -Pms 9 -Ps 9 -Pmd 0 -Pd 0 
r -t 1.003170227 -Hs 2 -Hd -2 -Ni 2 -Nx 389.00 -Ny 394.00 -Nz 0.00 -Ne -1.000000 -Nl MAC -Nw --- -Ma 0 -Md ffffffff -Ms 9 -Mt 806 -P arp -Po REQUEST -Pms 9 -Ps 9 -Pmd 0 -Pd 0 
r -t 1.003170354 -Hs 6 -Hd -2 -Ni 6 -Nx 339.00 -Ny 344.00 -Nz 0.00 -Ne -1.000000 -Nl MAC -Nw --- -Ma 0 -Md ffffffff -Ms 9 -Mt 806 -P arp -Po REQUEST -Pms 9 -Ps 9 -Pmd 0 -Pd 0 
r -t 1.003170381 -Hs 1 -Hd -2 -Ni 1 -Nx 339.00 -Ny 394.00 -Nz 0.00 -Ne -1.000000 -Nl MAC -Nw --- -Ma 0 -Md ffffffff -Ms 9 -Mt 806 -P arp -Po REQUEST -Pms 9 -Ps 9 -Pmd 0 -Pd 0 
r -t 1.003170521 -Hs 5 -Hd -2 -Ni 5 -Nx 289.00 -Ny 344.00 -Nz 0.00 -Ne -1.000000 -Nl MAC -Nw --- -Ma 0 -Md ffffffff -Ms 9 -Mt 806 -P arp -Po REQUEST -Pms 9 -Ps 9 -Pmd 0 -Pd 0 
r -t 1.003170541 -Hs 0 -Hd -2 -Ni 0 -Nx 289.00 -Ny 394.00 -Nz 0.00 -Ne -1.000000 -Nl MAC -Nw --- -Ma 0 -Md ffffffff -Ms 9 -Mt 806 -P arp -Po REQUEST -Pms 9 -Ps 9 -Pmd 0 -Pd 0 
s -t 1.003340541 -Hs 0 -Hd -2 -Ni 0 -Nx 289.00 -Ny 394.00 -Nz 0.00 -Ne -1.000000 -Nl MAC -Nw --- -Ma 52e -Md 9 -Ms 0 -Mt 0 
s -t 1.003347928 -Hs 7 -Hd -2 -Ni 7 -Nx 389.00 -Ny 344.00 -Nz 0.00 -Ne -1.000000 -Nl RTR -Nw --- -Ma 0 -Md ffffffff -Ms 0 -Mt 800 -Is 7.255 -Id -1.255 -It AODV -Il 48 -If 0 -Ii 0 -Iv 29 -P aodv -Pt 0x2 -Ph 2 -Pb 1 -Pd 9 -Pds 0 -Ps 0 -Pss 4 -Pc REQUEST 
s -t 1.003544416 -Hs 5 -Hd -2 -Ni 5 -Nx 289.00 -Ny 344.00 -Nz 0.00 -Ne -1.000000 -Nl RTR -Nw --- -Ma 0 -Md ffffffff -Ms 0 -Mt 800 -Is 5.255 -Id -1.255 -It AODV -Il 48 -If 0 -Ii 0 -Iv 29 -P aodv -Pt 0x2 -Ph 2 -Pb 1 -Pd 9 -Pds 0 -Ps 0 -Pss 4 -Pc REQUEST 
s -t 1.003594351 -Hs 7 -Hd -2 -Ni 7 -Nx 389.00 -Ny 344.00 -Nz 0.00 -Ne -1.000000 -Nl RTR -Nw --- -Ma 0 -Md ffffffff -Ms 5 -Mt 800 -Is 7.255 -Id -1.255 -It AODV -Il 48 -If 0 -Ii 0 -Iv 29 -P aodv -Pt 0x2 -Ph 2 -Pb 1 -Pd 4 -Pds 0 -Ps 5 -Pss 4 -Pc REQUEST 
r -t 1.003693228 -Hs 9 -Hd -2 -Ni 9 -Nx 489.00 -Ny 344.00 -Nz 0.00 -Ne -1.000000 -Nl MAC -Nw --- -Ma 52e -Md 9 -Ms 0 -Mt 0 
s -t 1.003703228 -Hs 9 -Hd -2 -Ni 9 -Nx 489.00 -Ny 344.00 -Nz 0.00 -Ne -1.000000 -Nl MAC -Nw --- -Ma 3f4 -Md 0 -Ms 0 -Mt 0 
r -t 1.004007915 -Hs 0 -Hd -2 -Ni 0 -Nx 289.00 -Ny 394.00 -Nz 0.00 -Ne -1.000000 -Nl MAC -Nw --- -Ma 3f4 -Md 0 -Ms 0 -Mt 0 
s -t 1.004017915 -Hs 0 -Hd -2 -Ni 0 -Nx 289.00 -Ny 394.00 -Nz 0.00 -Ne -1.000000 -Nl MAC -Nw --- -Ma 13a -Md 9 -Ms 0 -Mt 806 -P arp -Po REPLY -Pms 0 -Ps 0 -Pmd 9 -Pd 9 
s -t 1.004154553 -Hs 2 -Hd -2 -Ni 2 -Nx 389.00 -Ny 394.00 -Nz 0.00 -Ne -1.000000 -Nl RTR -Nw --- -Ma 0 -Md ffffffff -Ms 0 -Mt 800 -Is 2.255 -Id -1.255 -It AODV -Il 48 -If 0 -Ii 0 -Iv 29 -P aodv -Pt 0x2 -Ph 2 -Pb 1 -Pd 9 -Pds 0 -Ps 0 -Pss 4 -Pc REQUEST 
s -t 1.004339291 -Hs 8 -Hd -2 -Ni 8 -Nx 439.00 -Ny 344.00 -Nz 0.00 -Ne -1.000000 -Nl RTR -Nw --- -Ma 0 -Md ffffffff -Ms 5 -Mt 800 -Is 8.255 -Id -1.255 -It AODV -Il 48 -If 0 -Ii 0 -Iv 29 -P aodv -Pt 0x2 -Ph 2 -Pb 1 -Pd 4 -Pds 0 -Ps 5 -Pss 4 -Pc REQUEST 
s -t 1.004377784 -Hs 6 -Hd -2 -Ni 6 -Nx 339.00 -Ny 344.00 -Nz 0.00 -Ne -1.000000 -Nl RTR -Nw --- -Ma 0 -Md ffffffff -Ms 5 -Mt 800 -Is 6.255 -Id -1.255 -It AODV -Il 48 -If 0 -Ii 0 -Iv 29 -P aodv -Pt 0x2 -Ph 2 -Pb 1 -Pd 4 -Pds 0 -Ps 5 -Pss 4 -Pc REQUEST 
r -t 1.004706603 -Hs 9 -Hd -2 -Ni 9 -Nx 489.00 -Ny 344.00 -Nz 0.00 -Ne -1.000000 -Nl MAC -Nw --- -Ma 13a -Md 9 -Ms 0 -Mt 806 -P arp -Po REPLY -Pms 0 -Ps 0 -Pmd 9 -Pd 9 
s -t 1.004716603 -Hs 9 -Hd -2 -Ni 9 -Nx 489.00 -Ny 344.00 -Nz 0.00 -Ne -1.000000 -Nl MAC -Nw --- -Ma 0 -Md 0 -Ms 0 -Mt 0 
s -t 1.004987713 -Hs 4 -Hd -2 -Ni 4 -Nx 489.00 -Ny 394.00 -Nz 0.00 -Ne -1.000000 -Nl RTR -Nw --- -Ma 0 -Md ffffffff -Ms 0 -Mt 800 -Is 4.255 -Id -1.255 -It AODV -Il 48 -If 0 -Ii 0 -Iv 29 -P aodv -Pt 0x2 -Ph 2 -Pb 1 -Pd 9 -Pds 0 -Ps 0 -Pss 4 -Pc REQUEST 
r -t 1.005021290 -Hs 0 -Hd -2 -Ni 0 -Nx 289.00 -Ny 394.00 -Nz 0.00 -Ne -1.000000 -Nl MAC -Nw --- -Ma 0 -Md 0 -Ms 0 -Mt 0 
s -t 1.005190603 -Hs 9 -Hd -2 -Ni 9 -Nx 489.00 -Ny 344.00 -Nz 0.00 -Ne -1.000000 -Nl MAC -Nw --- -Ma 0 -Md ffffffff -Ms 9 -Mt 800 -Is 9.255 -Id -1.255 -It AODV -Il 106 -If 0 -Ii 0 -Iv 29 -P aodv -Pt 0x2 -Ph 2 -Pb 1 -Pd 4 -Pds 0 -Ps 5 -Pss 4 -Pc REQUEST 
s -t 1.005894104 -Hs 8 -Hd -2 -Ni 8 -Nx 439.00 -Ny 344.00 -Nz 0.00 -Ne -1.000000 -Nl RTR -Nw --- -Ma 0 -Md ffffffff -Ms 0 -Mt 800 -Is 8.255 -Id -1.255 -It AODV -Il 48 -If 0 -Ii 0 -Iv 29 -P aodv -Pt 0x2 -Ph 2 -Pb 1 -Pd 9 -Pds 0 -Ps 0 -Pss 4 -Pc REQUEST 
r -t 1.006038769 -Hs 4 -Hd -2 -Ni 4 -Nx 489.00 -Ny 394.00 -Nz 0.00 -Ne -1.000000 -Nl MAC -Nw --- -Ma 0 -Md ffffffff -Ms 9 -Mt 800 -Is 9.255 -Id -1.255 -It AODV -Il 48 -If 0 -Ii 0 -Iv 29 -P aodv -Pt 0x2 -Ph 2 -Pb 1 -Pd 4 -Pds 0 -Ps 5 -Pss 4 -Pc REQUEST 
r -t 1.006038769 -Hs 8 -Hd -2 -Ni 8 -Nx 439.00 -Ny 344.00 -Nz 0.00 -Ne -1.000000 -Nl MAC -Nw --- -Ma 0 -Md ffffffff -Ms 9 -Mt 800 -Is 9.255 -Id -1.255 -It AODV -Il 48 -If 0 -Ii 0 -Iv 29 -P aodv -Pt 0x2 -Ph 2 -Pb 1 -Pd 4 -Pds 0 -Ps 5 -Pss 4 -Pc REQUEST 
r -t 1.006038838 -Hs 3 -Hd -2 -Ni 3 -Nx 439.00 -Ny 394.00 -Nz 0.00 -Ne -1.000000 -Nl MAC -Nw --- -Ma 0 -Md ffffffff -Ms 9 -Mt 800 -Is 9.255 -Id -1.255 -It AODV -Il 48 -If 0 -Ii 0 -Iv 29 -P aodv -Pt 0x2 -Ph 2 -Pb 1 -Pd 4 -Pds 0 -Ps 5 -Pss 4 -Pc REQUEST 
r -t 1.006038936 -Hs 7 -Hd -2 -Ni 7 -Nx 389.00 -Ny 344.00 -Nz 0.00 -Ne -1.000000 -Nl MAC -Nw --- -Ma 0 -Md ffffffff -Ms 9 -Mt 800 -Is 9.255 -Id -1.255 -It AODV -Il 48 -If 0 -Ii 0 -Iv 29 -P aodv -Pt 0x2 -Ph 2 -Pb 1 -Pd 4 -Pds 0 -Ps 5 -Pss 4 -Pc REQUEST 
r -t 1.006038975 -Hs 2 -Hd -2 -Ni 2 -Nx 389.00 -Ny 394.00 -Nz 0.00 -Ne -1.000000 -Nl MAC -Nw --- -Ma 0 -Md ffffffff -Ms 9 -Mt 800 -Is 9.255 -Id -1.255 -It AODV -Il 48 -If 0 -Ii 0 -Iv 29 -P aodv -Pt 0x2 -Ph 2 -Pb 1 -Pd 4 -Pds 0 -Ps 5 -Pss 4 -Pc REQUEST 
r -t 1.006039103 -Hs 6 -Hd -2 -Ni 6 -Nx 339.00 -Ny 344.00 -Nz 0.00 -Ne -1.000000 -Nl MAC -Nw --- -Ma 0 -Md ffffffff -Ms 9 -Mt 800 -Is 9.255 -Id -1.255 -It AODV -Il 48 -If 0 -Ii 0 -Iv 29 -P aodv -Pt 0x2 -Ph 2 -Pb 1 -Pd 4 -Pds 0 -Ps 5 -Pss 4 -Pc REQUEST 
r -t 1.006039130 -Hs 1 -Hd -2 -Ni 1 -Nx 339.00 -Ny 394.00 -Nz 0.00 -Ne -1.000000 -Nl MAC -Nw --- -Ma 0 -Md ffffffff -Ms 9 -Mt 800 -Is 9.255 -Id -1.255 -It AODV -Il 48 -If 0 -Ii 0 -Iv 29 -P aodv -Pt 0x2 -Ph 2 -Pb 1 -Pd 4 -Pds 0 -Ps 5 -Pss 4 -Pc REQUEST 
r -t 1.006039269 -Hs 5 -Hd -2 -Ni 5 -Nx 289.00 -Ny 344.00 -Nz 0.00 -Ne -1.000000 -Nl MAC -Nw --- -Ma 0 -Md ffffffff -Ms 9 -Mt 800 -Is 9.255 -Id -1.255 -It AODV -Il 48 -If 0 -Ii 0 -Iv 29 -P aodv -Pt 0x2 -Ph 2 -Pb 1 -Pd 4 -Pds 0 -Ps 5 -Pss 4 -Pc REQUEST 
r -t 1.006039290 -Hs 0 -Hd -2 -Ni 0 -Nx 289.00 -Ny 394.00 -Nz 0.00 -Ne -1.000000 -Nl MAC -Nw --- -Ma 0 -Md ffffffff -Ms 9 -Mt 800 -Is 9.255 -Id -1.255 -It AODV -Il 48 -If 0 -Ii 0 -Iv 29 -P aodv -Pt 0x2 -Ph 2 -Pb 1 -Pd 4 -Pds 0 -Ps 5 -Pss 4 -Pc REQUEST 
r -t 1.006063769 -Hs 4 -Hd -2 -Ni 4 -Nx 489.00 -Ny 394.00 -Nz 0.00 -Ne -1.000000 -Nl RTR -Nw --- -Ma 0 -Md ffffffff -Ms 9 -Mt 800 -Is 9.255 -Id -1.255 -It AODV -Il 48 -If 0 -Ii 0 -Iv 29 -P aodv -Pt 0x2 -Ph 2 -Pb 1 -Pd 4 -Pds 0 -Ps 5 -Pss 4 -Pc REQUEST 
r -t 1.006063769 -Hs 8 -Hd -2 -Ni 8 -Nx 439.00 -Ny 344.00 -Nz 0.00 -Ne -1.000000 -Nl RTR -Nw --- -Ma 0 -Md ffffffff -Ms 9 -Mt 800 -Is 9.255 -Id -1.255 -It AODV -Il 48 -If 0 -Ii 0 -Iv 29 -P aodv -Pt 0x2 -Ph 2 -Pb 1 -Pd 4 -Pds 0 -Ps 5 -Pss 4 -Pc REQUEST 
r -t 1.006063838 -Hs 3 -Hd -2 -Ni 3 -Nx 439.00 -Ny 394.00 -Nz 0.00 -Ne -1.000000 -Nl RTR -Nw --- -Ma 0 -Md ffffffff -Ms 9 -Mt 800 -Is 9.255 -Id -1.255 -It AODV -Il 48 -If 0 -Ii 0 -Iv 29 -P aodv -Pt 0x2 -Ph 2 -Pb 1 -Pd 4 -Pds 0 -Ps 5 -Pss 4 -Pc REQUEST 
r -t 1.006063936 -Hs 7 -Hd -2 -Ni 7 -Nx 389.00 -Ny 344.00 -Nz 0.00 -Ne -1.000000 -Nl RTR -Nw --- -Ma 0 -Md ffffffff -Ms 9 -Mt 800 -Is 9.255 -Id -1.255 -It AODV -Il 48 -If 0 -Ii 0 -Iv 29 -P aodv -Pt 0x2 -Ph 2 -Pb 1 -Pd 4 -Pds 0 -Ps 5 -Pss 4 -Pc REQUEST 
r -t 1.006063975 -Hs 2 -Hd -2 -Ni 2 -Nx 389.00 -Ny 394.00 -Nz 0.00 -Ne -1.000000 -Nl RTR -Nw --- -Ma 0 -Md ffffffff -Ms 9 -Mt 800 -Is 9.255 -Id -1.255 -It AODV -Il 48 -If 0 -Ii 0 -Iv 29 -P aodv -Pt 0x2 -Ph 2 -Pb 1 -Pd 4 -Pds 0 -Ps 5 -Pss 4 -Pc REQUEST 
r -t 1.006064103 -Hs 6 -Hd -2 -Ni 6 -Nx 339.00 -Ny 344.00 -Nz 0.00 -Ne -1.000000 -Nl RTR -Nw --- -Ma 0 -Md ffffffff -Ms 9 -Mt 800 -Is 9.255 -Id -1.255 -It AODV -Il 48 -If 0 -Ii 0 -Iv 29 -P aodv -Pt 0x2 -Ph 2 -Pb 1 -Pd 4 -Pds 0 -Ps 5 -Pss 4 -Pc REQUEST 
r -t 1.006064130 -Hs 1 -Hd -2 -Ni 1 -Nx 339.00 -Ny 394.00 -Nz 0.00 -Ne -1.000000 -Nl RTR -Nw --- -Ma 0 -Md ffffffff -Ms 9 -Mt 800 -Is 9.255 -Id -1.255 -It AODV -Il 48 -If 0 -Ii 0 -Iv 29 -P aodv -Pt 0x2 -Ph 2 -Pb 1 -Pd 4 -Pds 0 -Ps 5 -Pss 4 -Pc REQUEST 
r -t 1.006064269 -Hs 5 -Hd -2 -Ni 5 -Nx 289.00 -Ny 344.00 -Nz 0.00 -Ne -1.000000 -Nl RTR -Nw --- -Ma 0 -Md ffffffff -Ms 9 -Mt 800 -Is 9.255 -Id -1.255 -It AODV -Il 48 -If 0 -Ii 0 -Iv 29 -P aodv -Pt 0x2 -Ph 2 -Pb 1 -Pd 4 -Pds 0 -Ps 5 -Pss 4 -Pc REQUEST 
r -t 1.006064290 -Hs 0 -Hd -2 -Ni 0 -Nx 289.00 -Ny 394.00 -Nz 0.00 -Ne -1.000000 -Nl RTR -Nw --- -Ma 0 -Md ffffffff -Ms 9 -Mt 800 -Is 9.255 -Id -1.255 -It AODV -Il 48 -If 0 -Ii 0 -Iv 29 -P aodv -Pt 0x2 -Ph 2 -Pb 1 -Pd 4 -Pds 0 -Ps 5 -Pss 4 -Pc REQUEST 
s -t 1.006128603 -Hs 9 -Hd -2 -Ni 9 -Nx 489.00 -Ny 344.00 -Nz 0.00 -Ne -1.000000 -Nl MAC -Nw --- -Ma 5ae -Md 0 -Ms 9 -Mt 0 
r -t 1.006481290 -Hs 0 -Hd -2 -Ni 0 -Nx 289.00 -Ny 394.00 -Nz 0.00 -Ne -1.000000 -Nl MAC -Nw --- -Ma 5ae -Md 0 -Ms 9 -Mt 0 
s -t 1.006491290 -Hs 0 -Hd -2 -Ni 0 -Nx 289.00 -Ny 394.00 -Nz 0.00 -Ne -1.000000 -Nl MAC -Nw --- -Ma 474 -Md 9 -Ms 0 -Mt 0 
s -t 1.006642970 -Hs 6 -Hd -2 -Ni 6 -Nx 339.00 -Ny 344.00 -Nz 0.00 -Ne -1.000000 -Nl RTR -Nw --- -Ma 0 -Md ffffffff -Ms 0 -Mt 800 -Is 6.255 -Id -1.255 -It AODV -Il 48 -If 0 -Ii 0 -Iv 29 -P aodv -Pt 0x2 -Ph 2 -Pb 1 -Pd 9 -Pds 0 -Ps 0 -Pss 4 -Pc REQUEST 
r -t 1.006795977 -Hs 9 -Hd -2 -Ni 9 -Nx 489.00 -Ny 344.00 -Nz 0.00 -Ne -1.000000 -Nl MAC -Nw --- -Ma 474 -Md 9 -Ms 0 -Mt 0 
s -t 1.006805977 -Hs 9 -Hd 0 -Ni 9 -Nx 489.00 -Ny 344.00 -Nz 0.00 -Ne -1.000000 -Nl MAC -Nw --- -Ma 13a -Md 0 -Ms 9 -Mt 800 -Is 9.255 -Id 0.255 -It AODV -Il 102 -If 0 -Ii 0 -Iv 30 -P aodv -Pt 0x4 -Ph 1 -Pd 9 -Pds 4 -Pl 10.000000 -Pc REPLY 
r -t 1.007622664 -Hs 0 -Hd 0 -Ni 0 -Nx 289.00 -Ny 394.00 -Nz 0.00 -Ne -1.000000 -Nl MAC -Nw --- -Ma 13a -Md 0 -Ms 9 -Mt 800 -Is 9.255 -Id 0.255 -It AODV -Il 44 -If 0 -Ii 0 -Iv 30 -P aodv -Pt 0x4 -Ph 1 -Pd 9 -Pds 4 -Pl 10.000000 -Pc REPLY 
s -t 1.007632664 -Hs 0 -Hd -2 -Ni 0 -Nx 289.00 -Ny 394.00 -Nz 0.00 -Ne -1.000000 -Nl MAC -Nw --- -Ma 0 -Md 9 -Ms 0 -Mt 0 
s -t 1.007637024 -Hs 2 -Hd -2 -Ni 2 -Nx 389.00 -Ny 394.00 -Nz 0.00 -Ne -1.000000 -Nl RTR -Nw --- -Ma 0 -Md ffffffff -Ms 5 -Mt 800 -Is 2.255 -Id -1.255 -It AODV -Il 48 -If 0 -Ii 0 -Iv 29 -P aodv -Pt 0x2 -Ph 2 -Pb 1 -Pd 4 -Pds 0 -Ps 5 -Pss 4 -Pc REQUEST 
r -t 1.007647664 -Hs 0 -Hd 0 -Ni 0 -Nx 289.00 -Ny 394.00 -Nz 0.00 -Ne -1.000000 -Nl RTR -Nw --- -Ma 13a -Md 0 -Ms 9 -Mt 800 -Is 9.255 -Id 0.255 -It AODV -Il 44 -If 0 -Ii 0 -Iv 30 -P aodv -Pt 0x4 -Ph 1 -Pd 9 -Pds 4 -Pl 10.000000 -Pc REPLY 
s -t 1.007647664 -Hs 0 -Hd 9 -Ni 0 -Nx 289.00 -Ny 394.00 -Nz 0.00 -Ne -1.000000 -Nl RTR -Nw --- -Ma 0 -Md 0 -Ms 0 -Mt 0 -Is 0.0 -Id 9.0 -It tcp -Il 40 -If 0 -Ii 0 -Iv 30 -Pn tcp -Ps 0 -Pa 0 -Pf 0 -Po 0 
r -t 1.007937351 -Hs 9 -Hd -2 -Ni 9 -Nx 489.00 -Ny 344.00 -Nz 0.00 -Ne -1.000000 -Nl MAC -Nw --- -Ma 0 -Md 9 -Ms 0 -Mt 0 
s -t 1.008027331 -Hs 4 -Hd -2 -Ni 4 -Nx 489.00 -Ny 394.00 -Nz 0.00 -Ne -1.000000 -Nl MAC -Nw --- -Ma 0 -Md ffffffff -Ms 4 -Mt 806 -P arp -Po REQUEST -Pms 4 -Ps 4 -Pmd 0 -Pd 5 
r -t 1.008715497 -Hs 3 -Hd -2 -Ni 3 -Nx 439.00 -Ny 394.00 -Nz 0.00 -Ne -1.000000 -Nl MAC -Nw --- -Ma 0 -Md ffffffff -Ms 4 -Mt 806 -P arp -Po REQUEST -Pms 4 -Ps 4 -Pmd 0 -Pd 5 
r -t 1.008715497 -Hs 9 -Hd -2 -Ni 9 -Nx 489.00 -Ny 344.00 -Nz 0.00 -Ne -1.000000 -Nl MAC -Nw --- -Ma 0 -Md ffffffff -Ms 4 -Mt 806 -P arp -Po REQUEST -Pms 4 -Ps 4 -Pmd 0 -Pd 5 
r -t 1.008715567 -Hs 8 -Hd -2 -Ni 8 -Nx 439.00 -Ny 344.00 -Nz 0.00 -Ne -1.000000 -Nl MAC -Nw --- -Ma 0 -Md ffffffff -Ms 4 -Mt 806 -P arp -Po REQUEST -Pms 4 -Ps 4 -Pmd 0 -Pd 5 
r -t 1.008715664 -Hs 2 -Hd -2 -Ni 2 -Nx 389.00 -Ny 394.00 -Nz 0.00 -Ne -1.000000 -Nl MAC -Nw --- -Ma 0 -Md ffffffff -Ms 4 -Mt 806 -P arp -Po REQUEST -Pms 4 -Ps 4 -Pmd 0 -Pd 5 
r -t 1.008715703 -Hs 7 -Hd -2 -Ni 7 -Nx 389.00 -Ny 344.00 -Nz 0.00 -Ne -1.000000 -Nl MAC -Nw --- -Ma 0 -Md ffffffff -Ms 4 -Mt 806 -P arp -Po REQUEST -Pms 4 -Ps 4 -Pmd 0 -Pd 5 
r -t 1.008715831 -Hs 1 -Hd -2 -Ni 1 -Nx 339.00 -Ny 394.00 -Nz 0.00 -Ne -1.000000 -Nl MAC -Nw --- -Ma 0 -Md ffffffff -Ms 4 -Mt 806 -P arp -Po REQUEST -Pms 4 -Ps 4 -Pmd 0 -Pd 5 
r -t 1.008715858 -Hs 6 -Hd -2 -Ni 6 -Nx 339.00 -Ny 344.00 -Nz 0.00 -Ne -1.000000 -Nl MAC -Nw --- -Ma 0 -Md ffffffff -Ms 4 -Mt 806 -P arp -Po REQUEST -Pms 4 -Ps 4 -Pmd 0 -Pd 5 
r -t 1.008715997 -Hs 0 -Hd -2 -Ni 0 -Nx 289.00 -Ny 394.00 -Nz 0.00 -Ne -1.000000 -Nl MAC -Nw --- -Ma 0 -Md ffffffff -Ms 4 -Mt 806 -P arp -Po REQUEST -Pms 4 -Ps 4 -Pmd 0 -Pd 5 
r -t 1.008716018 -Hs 5 -Hd -2 -Ni 5 -Nx 289.00 -Ny 344.00 -Nz 0.00 -Ne -1.000000 -Nl MAC -Nw --- -Ma 0 -Md ffffffff -Ms 4 -Mt 806 -P arp -Po REQUEST -Pms 4 -Ps 4 -Pmd 0 -Pd 5 
s -t 1.008786018 -Hs 5 -Hd -2 -Ni 5 -Nx 289.00 -Ny 344.00 -Nz 0.00 -Ne -1.000000 -Nl MAC -Nw --- -Ma 0 -Md ffffffff -Ms 5 -Mt 800 -Is 5.255 -Id -1.255 -It AODV -Il 106 -If 0 -Ii 0 -Iv 29 -P aodv -Pt 0x2 -Ph 2 -Pb 1 -Pd 9 -Pds 0 -Ps 0 -Pss 4 -Pc REQUEST 
s -t 1.009239721 -Hs 0 -Hd -2 -Ni 0 -Nx 289.00 -Ny 394.00 -Nz 0.00 -Ne -1.000000 -Nl RTR -Nw --- -Ma 0 -Md ffffffff -Ms 5 -Mt 800 -Is 0.255 -Id -1.255 -It AODV -Il 48 -If 0 -Ii 0 -Iv 29 -P aodv -Pt 0x2 -Ph 2 -Pb 1 -Pd 4 -Pds 0 -Ps 5 -Pss 4 -Pc REQUEST 
s -t 1.009412996 -Hs 1 -Hd -2 -Ni 1 -Nx 339.00 -Ny 394.00 -Nz 0.00 -Ne -1.000000 -Nl RTR -Nw --- -Ma 0 -Md ffffffff -Ms 5 -Mt 800 -Is 1.255 -Id -1.255 -It AODV -Il 48 -If 0 -Ii 0 -Iv 29 -P aodv -Pt 0x2 -Ph 2 -Pb 1 -Pd 4 -Pds 0 -Ps 5 -Pss 4 -Pc REQUEST 
s -t 1.009611762 -Hs 3 -Hd -2 -Ni 3 -Nx 439.00 -Ny 394.00 -Nz 0.00 -Ne -1.000000 -Nl RTR -Nw --- -Ma 0 -Md ffffffff -Ms 5 -Mt 800 -Is 3.255 -Id -1.255 -It AODV -Il 48 -If 0 -Ii 0 -Iv 29 -P aodv -Pt 0x2 -Ph 2 -Pb 1 -Pd 4 -Pds 0 -Ps 5 -Pss 4 -Pc REQUEST 
r -t 1.009634185 -Hs 0 -Hd -2 -Ni 0 -Nx 289.00 -Ny 394.00 -Nz 0.00 -Ne -1.000000 -Nl MAC -Nw --- -Ma 0 -Md ffffffff -Ms 5 -Mt 800 -Is 5.255 -Id -1.255 -It AODV -Il 48 -If 0 -Ii 0 -Iv 29 -P aodv -Pt 0x2 -Ph 2 -Pb 1 -Pd 9 -Pds 0 -Ps 0 -Pss 4 -Pc REQUEST 
r -t 1.009634185 -Hs 6 -Hd -2 -Ni 6 -Nx 339.00 -Ny 344.00 -Nz 0.00 -Ne -1.000000 -Nl MAC -Nw --- -Ma 0 -Md ffffffff -Ms 5 -Mt 800 -Is 5.255 -Id -1.255 -It AODV -Il 48 -If 0 -Ii 0 -Iv 29 -P aodv -Pt 0x2 -Ph 2 -Pb 1 -Pd 9 -Pds 0 -Ps 0 -Pss 4 -Pc REQUEST 
r -t 1.009634254 -Hs 1 -Hd -2 -Ni 1 -Nx 339.00 -Ny 394.00 -Nz 0.00 -Ne -1.000000 -Nl MAC -Nw --- -Ma 0 -Md ffffffff -Ms 5 -Mt 800 -Is 5.255 -Id -1.255 -It AODV -Il 48 -If 0 -Ii 0 -Iv 29 -P aodv -Pt 0x2 -Ph 2 -Pb 1 -Pd 9 -Pds 0 -Ps 0 -Pss 4 -Pc REQUEST 
r -t 1.009634351 -Hs 7 -Hd -2 -Ni 7 -Nx 389.00 -Ny 344.00 -Nz 0.00 -Ne -1.000000 -Nl MAC -Nw --- -Ma 0 -Md ffffffff -Ms 5 -Mt 800 -Is 5.255 -Id -1.255 -It AODV -Il 48 -If 0 -Ii 0 -Iv 29 -P aodv -Pt 0x2 -Ph 2 -Pb 1 -Pd 9 -Pds 0 -Ps 0 -Pss 4 -Pc REQUEST 
r -t 1.009634391 -Hs 2 -Hd -2 -Ni 2 -Nx 389.00 -Ny 394.00 -Nz 0.00 -Ne -1.000000 -Nl MAC -Nw --- -Ma 0 -Md ffffffff -Ms 5 -Mt 800 -Is 5.255 -Id -1.255 -It AODV -Il 48 -If 0 -Ii 0 -Iv 29 -P aodv -Pt 0x2 -Ph 2 -Pb 1 -Pd 9 -Pds 0 -Ps 0 -Pss 4 -Pc REQUEST 
r -t 1.009634518 -Hs 8 -Hd -2 -Ni 8 -Nx 439.00 -Ny 344.00 -Nz 0.00 -Ne -1.000000 -Nl MAC -Nw --- -Ma 0 -Md ffffffff -Ms 5 -Mt 800 -Is 5.255 -Id -1.255 -It AODV -Il 48 -If 0 -Ii 0 -Iv 29 -P aodv -Pt 0x2 -Ph 2 -Pb 1 -Pd 9 -Pds 0 -Ps 0 -Pss 4 -Pc REQUEST 
r -t 1.009634545 -Hs 3 -Hd -2 -Ni 3 -Nx 439.00 -Ny 394.00 -Nz 0.00 -Ne -1.000000 -Nl MAC -Nw --- -Ma 0 -Md ffffffff -Ms 5 -Mt 800 -Is 5.255 -Id -1.255 -It AODV -Il 48 -If 0 -Ii 0 -Iv 29 -P aodv -Pt 0x2 -Ph 2 -Pb 1 -Pd 9 -Pds 0 -Ps 0 -Pss 4 -Pc REQUEST 
r -t 1.009634685 -Hs 9 -Hd -2 -Ni 9 -Nx 489.00 -Ny 344.00 -Nz 0.00 -Ne -1.000000 -Nl MAC -Nw --- -Ma 0 -Md ffffffff -Ms 5 -Mt 800 -Is 5.255 -Id -1.255 -It AODV -Il 48 -If 0 -Ii 0 -Iv 29 -P aodv -Pt 0x2 -Ph 2 -Pb 1 -Pd 9 -Pds 0 -Ps 0 -Pss 4 -Pc REQUEST 
r -t 1.009634705 -Hs 4 -Hd -2 -Ni 4 -Nx 489.00 -Ny 394.00 -Nz 0.00 -Ne -1.000000 -Nl MAC -Nw --- -Ma 0 -Md ffffffff -Ms 5 -Mt 800 -Is 5.255 -Id -1.255 -It AODV -Il 48 -If 0 -Ii 0 -Iv 29 -P aodv -Pt 0x2 -Ph 2 -Pb 1 -Pd 9 -Pds 0 -Ps 0 -Pss 4 -Pc REQUEST 
r -t 1.009659185 -Hs 0 -Hd -2 -Ni 0 -Nx 289.00 -Ny 394.00 -Nz 0.00 -Ne -1.000000 -Nl RTR -Nw --- -Ma 0 -Md ffffffff -Ms 5 -Mt 800 -Is 5.255 -Id -1.255 -It AODV -Il 48 -If 0 -Ii 0 -Iv 29 -P aodv -Pt 0x2 -Ph 2 -Pb 1 -Pd 9 -Pds 0 -Ps 0 -Pss 4 -Pc REQUEST 
r -t 1.009659185 -Hs 6 -Hd -2 -Ni 6 -Nx 339.00 -Ny 344.00 -Nz 0.00 -Ne -1.000000 -Nl RTR -Nw --- -Ma 0 -Md ffffffff -Ms 5 -Mt 800 -Is 5.255 -Id -1.255 -It AODV -Il 48 -If 0 -Ii 0 -Iv 29 -P aodv -Pt 0x2 -Ph 2 -Pb 1 -Pd 9 -Pds 0 -Ps 0 -Pss 4 -Pc REQUEST 
r -t 1.009659254 -Hs 1 -Hd -2 -Ni 1 -Nx 339.00 -Ny 394.00 -Nz 0.00 -Ne -1.000000 -Nl RTR -Nw --- -Ma 0 -Md ffffffff -Ms 5 -Mt 800 -Is 5.255 -Id -1.255 -It AODV -Il 48 -If 0 -Ii 0 -Iv 29 -P aodv -Pt 0x2 -Ph 2 -Pb 1 -Pd 9 -Pds 0 -Ps 0 -Pss 4 -Pc REQUEST 
r -t 1.009659351 -Hs 7 -Hd -2 -Ni 7 -Nx 389.00 -Ny 344.00 -Nz 0.00 -Ne -1.000000 -Nl RTR -Nw --- -Ma 0 -Md ffffffff -Ms 5 -Mt 800 -Is 5.255 -Id -1.255 -It AODV -Il 48 -If 0 -Ii 0 -Iv 29 -P aodv -Pt 0x2 -Ph 2 -Pb 1 -Pd 9 -Pds 0 -Ps 0 -Pss 4 -Pc REQUEST 
r -t 1.009659391 -Hs 2 -Hd -2 -Ni 2 -Nx 389.00 -Ny 394.00 -Nz 0.00 -Ne -1.000000 -Nl RTR -Nw --- -Ma 0 -Md ffffffff -Ms 5 -Mt 800 -Is 5.255 -Id -1.255 -It AODV -Il 48 -If 0 -Ii 0 -Iv 29 -P aodv -Pt 0x2 -Ph 2 -Pb 1 -Pd 9 -Pds 0 -Ps 0 -Pss 4 -Pc REQUEST 