s -t 1.000000000 -Hs 3 -Hd -2 -Ni 3 -Nx 542.00 -Ny 382.00 -Nz 0.00 -Ne -1.000000 -Nl AGT -Nw --- -Ma 0 -Md 0 -Ms 0 -Mt 0 -Is 3.0 -Id 20.0 -It tcp -Il 40 -If 0 -Ii 0 -Iv 32 -Pn tcp -Ps 0 -Pa 0 -Pf 0 -Po 0 
r -t 1.000000000 -Hs 3 -Hd -2 -Ni 3 -Nx 542.00 -Ny 382.00 -Nz 0.00 -Ne -1.000000 -Nl RTR -Nw --- -Ma 0 -Md 0 -Ms 0 -Mt 0 -Is 3.0 -Id 20.0 -It tcp -Il 40 -If 0 -Ii 0 -Iv 32 -Pn tcp -Ps 0 -Pa 0 -Pf 0 -Po 0 
s -t 1.000000000 -Hs 6 -Hd -2 -Ni 6 -Nx 692.00 -Ny 382.00 -Nz 0.00 -Ne -1.000000 -Nl AGT -Nw --- -Ma 0 -Md 0 -Ms 0 -Mt 0 -Is 6.0 -Id 29.0 -It tcp -Il 40 -If 0 -Ii 1 -Iv 32 -Pn tcp -Ps 0 -Pa 0 -Pf 0 -Po 0 
r -t 1.000000000 -Hs 6 -Hd -2 -Ni 6 -Nx 692.00 -Ny 382.00 -Nz 0.00 -Ne -1.000000 -Nl RTR -Nw --- -Ma 0 -Md 0 -Ms 0 -Mt 0 -Is 6.0 -Id 29.0 -It tcp -Il 40 -If 0 -Ii 1 -Iv 32 -Pn tcp -Ps 0 -Pa 0 -Pf 0 -Po 0 
s -t 1.000000000 -Hs 3 -Hd -2 -Ni 3 -Nx 542.00 -Ny 382.00 -Nz 0.00 -Ne -1.000000 -Nl RTR -Nw --- -Ma 0 -Md 0 -Ms 0 -Mt 0 -Is 3.255 -Id -1.255 -It AODV -Il 48 -If 0 -Ii 0 -Iv 30 -P aodv -Pt 0x2 -Ph 1 -Pb 1 -Pd 20 -Pds 0 -Ps 3 -Pss 4 -Pc REQUEST 
s -t 1.000000000 -Hs 6 -Hd -2 -Ni 6 -Nx 692.00 -Ny 382.00 -Nz 0.00 -Ne -1.000000 -Nl RTR -Nw --- -Ma 0 -Md 0 -Ms 0 -Mt 0 -Is 6.255 -Id -1.255 -It AODV -Il 48 -If 0 -Ii 0 -Iv 30 -P aodv -Pt 0x2 -Ph 1 -Pb 1 -Pd 29 -Pds 0 -Ps 6 -Pss 4 -Pc REQUEST 
s -t 1.000375000 -Hs 6 -Hd -2 -Ni 6 -Nx 692.00 -Ny 382.00 -Nz 0.00 -Ne -1.000000 -Nl MAC -Nw --- -Ma 0 -Md ffffffff -Ms 6 -Mt 800 -Is 6.255 -Id -1.255 -It AODV -Il 106 -If 0 -Ii 0 -Iv 30 -P aodv -Pt 0x2 -Ph 1 -Pb 1 -Pd 29 -Pds 0 -Ps 6 -Pss 4 -Pc REQUEST 
r -t 1.001223167 -Hs 5 -Hd -2 -Ni 5 -Nx 642.00 -Ny 382.00 -Nz 0.00 -Ne -1.000000 -Nl MAC -Nw --- -Ma 0 -Md ffffffff -Ms 6 -Mt 800 -Is 6.255 -Id -1.255 -It AODV -Il 48 -If 0 -Ii 0 -Iv 30 -P aodv -Pt 0x2 -Ph 1 -Pb 1 -Pd 29 -Pds 0 -Ps 6 -Pss 4 -Pc REQUEST 
r -t 1.001223167 -Hs 16 -Hd -2 -Ni 16 -Nx 692.00 -Ny 332.00 -Nz 0.00 -Ne -1.000000 -Nl MAC -Nw --- -Ma 0 -Md ffffffff -Ms 6 -Mt 800 -Is 6.255 -Id -1.255 -It AODV -Il 48 -If 0 -Ii 0 -Iv 30 -P aodv -Pt 0x2 -Ph 1 -Pb 1 -Pd 29 -Pds 0 -Ps 6 -Pss 4 -Pc REQUEST 
r -t 1.001223167 -Hs 7 -Hd -2 -Ni 7 -Nx 742.00 -Ny 382.00 -Nz 0.00 -Ne -1.000000 -Nl MAC -Nw --- -Ma 0 -Md ffffffff -Ms 6 -Mt 800 -Is 6.255 -Id -1.255 -It AODV -Il 48 -If 0 -Ii 0 -Iv 30 -P aodv -Pt 0x2 -Ph 1 -Pb 1 -Pd 29 -Pds 0 -Ps 6 -Pss 4 -Pc REQUEST 
r -t 1.001223236 -Hs 15 -Hd -2 -Ni 15 -Nx 642.00 -Ny 332.00 -Nz 0.00 -Ne -1.000000 -Nl MAC -Nw --- -Ma 0 -Md ffffffff -Ms 6 -Mt 800 -Is 6.255 -Id -1.255 -It AODV -Il 48 -If 0 -Ii 0 -Iv 30 -P aodv -Pt 0x2 -Ph 1 -Pb 1 -Pd 29 -Pds 0 -Ps 6 -Pss 4 -Pc REQUEST 
r -t 1.001223236 -Hs 17 -Hd -2 -Ni 17 -Nx 742.00 -Ny 332.00 -Nz 0.00 -Ne -1.000000 -Nl MAC -Nw --- -Ma 0 -Md ffffffff -Ms 6 -Mt 800 -Is 6.255 -Id -1.255 -It AODV -Il 48 -If 0 -Ii 0 -Iv 30 -P aodv -Pt 0x2 -Ph 1 -Pb 1 -Pd 29 -Pds 0 -Ps 6 -Pss 4 -Pc REQUEST 
r -t 1.001223333 -Hs 4 -Hd -2 -Ni 4 -Nx 592.00 -Ny 382.00 -Nz 0.00 -Ne -1.000000 -Nl MAC -Nw --- -Ma 0 -Md ffffffff -Ms 6 -Mt 800 -Is 6.255 -Id -1.255 -It AODV -Il 48 -If 0 -Ii 0 -Iv 30 -P aodv -Pt 0x2 -Ph 1 -Pb 1 -Pd 29 -Pds 0 -Ps 6 -Pss 4 -Pc REQUEST 
r -t 1.001223333 -Hs 26 -Hd -2 -Ni 26 -Nx 692.00 -Ny 282.00 -Nz 0.00 -Ne -1.000000 -Nl MAC -Nw --- -Ma 0 -Md ffffffff -Ms 6 -Mt 800 -Is 6.255 -Id -1.255 -It AODV -Il 48 -If 0 -Ii 0 -Iv 30 -P aodv -Pt 0x2 -Ph 1 -Pb 1 -Pd 29 -Pds 0 -Ps 6 -Pss 4 -Pc REQUEST 
r -t 1.001223333 -Hs 8 -Hd -2 -Ni 8 -Nx 792.00 -Ny 382.00 -Nz 0.00 -Ne -1.000000 -Nl MAC -Nw --- -Ma 0 -Md ffffffff -Ms 6 -Mt 800 -Is 6.255 -Id -1.255 -It AODV -Il 48 -If 0 -Ii 0 -Iv 30 -P aodv -Pt 0x2 -Ph 1 -Pb 1 -Pd 29 -Pds 0 -Ps 6 -Pss 4 -Pc REQUEST 
r -t 1.001223373 -Hs 25 -Hd -2 -Ni 25 -Nx 642.00 -Ny 282.00 -Nz 0.00 -Ne -1.000000 -Nl MAC -Nw --- -Ma 0 -Md ffffffff -Ms 6 -Mt 800 -Is 6.255 -Id -1.255 -It AODV -Il 48 -If 0 -Ii 0 -Iv 30 -P aodv -Pt 0x2 -Ph 1 -Pb 1 -Pd 29 -Pds 0 -Ps 6 -Pss 4 -Pc REQUEST 
r -t 1.001223373 -Hs 14 -Hd -2 -Ni 14 -Nx 592.00 -Ny 332.00 -Nz 0.00 -Ne -1.000000 -Nl MAC -Nw --- -Ma 0 -Md ffffffff -Ms 6 -Mt 800 -Is 6.255 -Id -1.255 -It AODV -Il 48 -If 0 -Ii 0 -Iv 30 -P aodv -Pt 0x2 -Ph 1 -Pb 1 -Pd 29 -Pds 0 -Ps 6 -Pss 4 -Pc REQUEST 
r -t 1.001223373 -Hs 27 -Hd -2 -Ni 27 -Nx 742.00 -Ny 282.00 -Nz 0.00 -Ne -1.000000 -Nl MAC -Nw --- -Ma 0 -Md ffffffff -Ms 6 -Mt 800 -Is 6.255 -Id -1.255 -It AODV -Il 48 -If 0 -Ii 0 -Iv 30 -P aodv -Pt 0x2 -Ph 1 -Pb 1 -Pd 29 -Pds 0 -Ps 6 -Pss 4 -Pc REQUEST 
r -t 1.001223373 -Hs 18 -Hd -2 -Ni 18 -Nx 792.00 -Ny 332.00 -Nz 0.00 -Ne -1.000000 -Nl MAC -Nw --- -Ma 0 -Md ffffffff -Ms 6 -Mt 800 -Is 6.255 -Id -1.255 -It AODV -Il 48 -If 0 -Ii 0 -Iv 30 -P aodv -Pt 0x2 -Ph 1 -Pb 1 -Pd 29 -Pds 0 -Ps 6 -Pss 4 -Pc REQUEST 
r -t 1.001223471 -Hs 24 -Hd -2 -Ni 24 -Nx 592.00 -Ny 282.00 -Nz 0.00 -Ne -1.000000 -Nl MAC -Nw --- -Ma 0 -Md ffffffff -Ms 6 -Mt 800 -Is 6.255 -Id -1.255 -It AODV -Il 48 -If 0 -Ii 0 -Iv 30 -P aodv -Pt 0x2 -Ph 1 -Pb 1 -Pd 29 -Pds 0 -Ps 6 -Pss 4 -Pc REQUEST 
r -t 1.001223471 -Hs 28 -Hd -2 -Ni 28 -Nx 792.00 -Ny 282.00 -Nz 0.00 -Ne -1.000000 -Nl MAC -Nw --- -Ma 0 -Md ffffffff -Ms 6 -Mt 800 -Is 6.255 -Id -1.255 -It AODV -Il 48 -If 0 -Ii 0 -Iv 30 -P aodv -Pt 0x2 -Ph 1 -Pb 1 -Pd 29 -Pds 0 -Ps 6 -Pss 4 -Pc REQUEST 
r -t 1.001223500 -Hs 3 -Hd -2 -Ni 3 -Nx 542.00 -Ny 382.00 -Nz 0.00 -Ne -1.000000 -Nl MAC -Nw --- -Ma 0 -Md ffffffff -Ms 6 -Mt 800 -Is 6.255 -Id -1.255 -It AODV -Il 48 -If 0 -Ii 0 -Iv 30 -P aodv -Pt 0x2 -Ph 1 -Pb 1 -Pd 29 -Pds 0 -Ps 6 -Pss 4 -Pc REQUEST 
r -t 1.001223500 -Hs 36 -Hd -2 -Ni 36 -Nx 692.00 -Ny 232.00 -Nz 0.00 -Ne -1.000000 -Nl MAC -Nw --- -Ma 0 -Md ffffffff -Ms 6 -Mt 800 -Is 6.255 -Id -1.255 -It AODV -Il 48 -If 0 -Ii 0 -Iv 30 -P aodv -Pt 0x2 -Ph 1 -Pb 1 -Pd 29 -Pds 0 -Ps 6 -Pss 4 -Pc REQUEST 
r -t 1.001223500 -Hs 9 -Hd -2 -Ni 9 -Nx 842.00 -Ny 382.00 -Nz 0.00 -Ne -1.000000 -Nl MAC -Nw --- -Ma 0 -Md ffffffff -Ms 6 -Mt 800 -Is 6.255 -Id -1.255 -It AODV -Il 48 -If 0 -Ii 0 -Iv 30 -P aodv -Pt 0x2 -Ph 1 -Pb 1 -Pd 29 -Pds 0 -Ps 6 -Pss 4 -Pc REQUEST 
r -t 1.001223527 -Hs 35 -Hd -2 -Ni 35 -Nx 642.00 -Ny 232.00 -Nz 0.00 -Ne -1.000000 -Nl MAC -Nw --- -Ma 0 -Md ffffffff -Ms 6 -Mt 800 -Is 6.255 -Id -1.255 -It AODV -Il 48 -If 0 -Ii 0 -Iv 30 -P aodv -Pt 0x2 -Ph 1 -Pb 1 -Pd 29 -Pds 0 -Ps 6 -Pss 4 -Pc REQUEST 
r -t 1.001223527 -Hs 13 -Hd -2 -Ni 13 -Nx 542.00 -Ny 332.00 -Nz 0.00 -Ne -1.000000 -Nl MAC -Nw --- -Ma 0 -Md ffffffff -Ms 6 -Mt 800 -Is 6.255 -Id -1.255 -It AODV -Il 48 -If 0 -Ii 0 -Iv 30 -P aodv -Pt 0x2 -Ph 1 -Pb 1 -Pd 29 -Pds 0 -Ps 6 -Pss 4 -Pc REQUEST 
r -t 1.001223527 -Hs 37 -Hd -2 -Ni 37 -Nx 742.00 -Ny 232.00 -Nz 0.00 -Ne -1.000000 -Nl MAC -Nw --- -Ma 0 -Md ffffffff -Ms 6 -Mt 800 -Is 6.255 -Id -1.255 -It AODV -Il 48 -If 0 -Ii 0 -Iv 30 -P aodv -Pt 0x2 -Ph 1 -Pb 1 -Pd 29 -Pds 0 -Ps 6 -Pss 4 -Pc REQUEST 
r -t 1.001223527 -Hs 19 -Hd -2 -Ni 19 -Nx 842.00 -Ny 332.00 -Nz 0.00 -Ne -1.000000 -Nl MAC -Nw --- -Ma 0 -Md ffffffff -Ms 6 -Mt 800 -Is 6.255 -Id -1.255 -It AODV -Il 48 -If 0 -Ii 0 -Iv 30 -P aodv -Pt 0x2 -Ph 1 -Pb 1 -Pd 29 -Pds 0 -Ps 6 -Pss 4 -Pc REQUEST 
r -t 1.001223601 -Hs 34 -Hd -2 -Ni 34 -Nx 592.00 -Ny 232.00 -Nz 0.00 -Ne -1.000000 -Nl MAC -Nw --- -Ma 0 -Md ffffffff -Ms 6 -Mt 800 -Is 6.255 -Id -1.255 -It AODV -Il 48 -If 0 -Ii 0 -Iv 30 -P aodv -Pt 0x2 -Ph 1 -Pb 1 -Pd 29 -Pds 0 -Ps 6 -Pss 4 -Pc REQUEST 
r -t 1.001223601 -Hs 23 -Hd -2 -Ni 23 -Nx 542.00 -Ny 282.00 -Nz 0.00 -Ne -1.000000 -Nl MAC -Nw --- -Ma 0 -Md ffffffff -Ms 6 -Mt 800 -Is 6.255 -Id -1.255 -It AODV -Il 48 -If 0 -Ii 0 -Iv 30 -P aodv -Pt 0x2 -Ph 1 -Pb 1 -Pd 29 -Pds 0 -Ps 6 -Pss 4 -Pc REQUEST 
r -t 1.001223601 -Hs 38 -Hd -2 -Ni 38 -Nx 792.00 -Ny 232.00 -Nz 0.00 -Ne -1.000000 -Nl MAC -Nw --- -Ma 0 -Md ffffffff -Ms 6 -Mt 800 -Is 6.255 -Id -1.255 -It AODV -Il 48 -If 0 -Ii 0 -Iv 30 -P aodv -Pt 0x2 -Ph 1 -Pb 1 -Pd 29 -Pds 0 -Ps 6 -Pss 4 -Pc REQUEST 
r -t 1.001223601 -Hs 29 -Hd -2 -Ni 29 -Nx 842.00 -Ny 282.00 -Nz 0.00 -Ne -1.000000 -Nl MAC -Nw --- -Ma 0 -Md ffffffff -Ms 6 -Mt 800 -Is 6.255 -Id -1.255 -It AODV -Il 48 -If 0 -Ii 0 -Iv 30 -P aodv -Pt 0x2 -Ph 1 -Pb 1 -Pd 29 -Pds 0 -Ps 6 -Pss 4 -Pc REQUEST 
r -t 1.001223667 -Hs 2 -Hd -2 -Ni 2 -Nx 492.00 -Ny 382.00 -Nz 0.00 -Ne -1.000000 -Nl MAC -Nw --- -Ma 0 -Md ffffffff -Ms 6 -Mt 800 -Is 6.255 -Id -1.255 -It AODV -Il 48 -If 0 -Ii 0 -Iv 30 -P aodv -Pt 0x2 -Ph 1 -Pb 1 -Pd 29 -Pds 0 -Ps 6 -Pss 4 -Pc REQUEST 
r -t 1.001223667 -Hs 46 -Hd -2 -Ni 46 -Nx 692.00 -Ny 182.00 -Nz 0.00 -Ne -1.000000 -Nl MAC -Nw --- -Ma 0 -Md ffffffff -Ms 6 -Mt 800 -Is 6.255 -Id -1.255 -It AODV -Il 48 -If 0 -Ii 0 -Iv 30 -P aodv -Pt 0x2 -Ph 1 -Pb 1 -Pd 29 -Pds 0 -Ps 6 -Pss 4 -Pc REQUEST 
r -t 1.001223687 -Hs 45 -Hd -2 -Ni 45 -Nx 642.00 -Ny 182.00 -Nz 0.00 -Ne -1.000000 -Nl MAC -Nw --- -Ma 0 -Md ffffffff -Ms 6 -Mt 800 -Is 6.255 -Id -1.255 -It AODV -Il 48 -If 0 -Ii 0 -Iv 30 -P aodv -Pt 0x2 -Ph 1 -Pb 1 -Pd 29 -Pds 0 -Ps 6 -Pss 4 -Pc REQUEST 
r -t 1.001223687 -Hs 12 -Hd -2 -Ni 12 -Nx 492.00 -Ny 332.00 -Nz 0.00 -Ne -1.000000 -Nl MAC -Nw --- -Ma 0 -Md ffffffff -Ms 6 -Mt 800 -Is 6.255 -Id -1.255 -It AODV -Il 48 -If 0 -Ii 0 -Iv 30 -P aodv -Pt 0x2 -Ph 1 -Pb 1 -Pd 29 -Pds 0 -Ps 6 -Pss 4 -Pc REQUEST 
r -t 1.001223687 -Hs 47 -Hd -2 -Ni 47 -Nx 742.00 -Ny 182.00 -Nz 0.00 -Ne -1.000000 -Nl MAC -Nw --- -Ma 0 -Md ffffffff -Ms 6 -Mt 800 -Is 6.255 -Id -1.255 -It AODV -Il 48 -If 0 -Ii 0 -Iv 30 -P aodv -Pt 0x2 -Ph 1 -Pb 1 -Pd 29 -Pds 0 -Ps 6 -Pss 4 -Pc REQUEST 
r -t 1.001223707 -Hs 33 -Hd -2 -Ni 33 -Nx 542.00 -Ny 232.00 -Nz 0.00 -Ne -1.000000 -Nl MAC -Nw --- -Ma 0 -Md ffffffff -Ms 6 -Mt 800 -Is 6.255 -Id -1.255 -It AODV -Il 48 -If 0 -Ii 0 -Iv 30 -P aodv -Pt 0x2 -Ph 1 -Pb 1 -Pd 29 -Pds 0 -Ps 6 -Pss 4 -Pc REQUEST 
r -t 1.001223707 -Hs 39 -Hd -2 -Ni 39 -Nx 842.00 -Ny 232.00 -Nz 0.00 -Ne -1.000000 -Nl MAC -Nw --- -Ma 0 -Md ffffffff -Ms 6 -Mt 800 -Is 6.255 -Id -1.255 -It AODV -Il 48 -If 0 -Ii 0 -Iv 30 -P aodv -Pt 0x2 -Ph 1 -Pb 1 -Pd 29 -Pds 0 -Ps 6 -Pss 4 -Pc REQUEST 
r -t 1.001223745 -Hs 44 -Hd -2 -Ni 44 -Nx 592.00 -Ny 182.00 -Nz 0.00 -Ne -1.000000 -Nl MAC -Nw --- -Ma 0 -Md ffffffff -Ms 6 -Mt 800 -Is 6.255 -Id -1.255 -It AODV -Il 48 -If 0 -Ii 0 -Iv 30 -P aodv -Pt 0x2 -Ph 1 -Pb 1 -Pd 29 -Pds 0 -Ps 6 -Pss 4 -Pc REQUEST 
r -t 1.001223745 -Hs 22 -Hd -2 -Ni 22 -Nx 492.00 -Ny 282.00 -Nz 0.00 -Ne -1.000000 -Nl MAC -Nw --- -Ma 0 -Md ffffffff -Ms 6 -Mt 800 -Is 6.255 -Id -1.255 -It AODV -Il 48 -If 0 -Ii 0 -Iv 30 -P aodv -Pt 0x2 -Ph 1 -Pb 1 -Pd 29 -Pds 0 -Ps 6 -Pss 4 -Pc REQUEST 
r -t 1.001223745 -Hs 48 -Hd -2 -Ni 48 -Nx 792.00 -Ny 182.00 -Nz 0.00 -Ne -1.000000 -Nl MAC -Nw --- -Ma 0 -Md ffffffff -Ms 6 -Mt 800 -Is 6.255 -Id -1.255 -It AODV -Il 48 -If 0 -Ii 0 -Iv 30 -P aodv -Pt 0x2 -Ph 1 -Pb 1 -Pd 29 -Pds 0 -Ps 6 -Pss 4 -Pc REQUEST 
r -t 1.001223833 -Hs 43 -Hd -2 -Ni 43 -Nx 542.00 -Ny 182.00 -Nz 0.00 -Ne -1.000000 -Nl MAC -Nw --- -Ma 0 -Md ffffffff -Ms 6 -Mt 800 -Is 6.255 -Id -1.255 -It AODV -Il 48 -If 0 -Ii 0 -Iv 30 -P aodv -Pt 0x2 -Ph 1 -Pb 1 -Pd 29 -Pds 0 -Ps 6 -Pss 4 -Pc REQUEST 
r -t 1.001223833 -Hs 32 -Hd -2 -Ni 32 -Nx 492.00 -Ny 232.00 -Nz 0.00 -Ne -1.000000 -Nl MAC -Nw --- -Ma 0 -Md ffffffff -Ms 6 -Mt 800 -Is 6.255 -Id -1.255 -It AODV -Il 48 -If 0 -Ii 0 -Iv 30 -P aodv -Pt 0x2 -Ph 1 -Pb 1 -Pd 29 -Pds 0 -Ps 6 -Pss 4 -Pc REQUEST 
r -t 1.001223833 -Hs 1 -Hd -2 -Ni 1 -Nx 442.00 -Ny 382.00 -Nz 0.00 -Ne -1.000000 -Nl MAC -Nw --- -Ma 0 -Md ffffffff -Ms 6 -Mt 800 -Is 6.255 -Id -1.255 -It AODV -Il 48 -If 0 -Ii 0 -Iv 30 -P aodv -Pt 0x2 -Ph 1 -Pb 1 -Pd 29 -Pds 0 -Ps 6 -Pss 4 -Pc REQUEST 
r -t 1.001223833 -Hs 49 -Hd -2 -Ni 49 -Nx 842.00 -Ny 182.00 -Nz 0.00 -Ne -1.000000 -Nl MAC -Nw --- -Ma 0 -Md ffffffff -Ms 6 -Mt 800 -Is 6.255 -Id -1.255 -It AODV -Il 48 -If 0 -Ii 0 -Iv 30 -P aodv -Pt 0x2 -Ph 1 -Pb 1 -Pd 29 -Pds 0 -Ps 6 -Pss 4 -Pc REQUEST 
r -t 1.001248167 -Hs 5 -Hd -2 -Ni 5 -Nx 642.00 -Ny 382.00 -Nz 0.00 -Ne -1.000000 -Nl RTR -Nw --- -Ma 0 -Md ffffffff -Ms 6 -Mt 800 -Is 6.255 -Id -1.255 -It AODV -Il 48 -If 0 -Ii 0 -Iv 30 -P aodv -Pt 0x2 -Ph 1 -Pb 1 -Pd 29 -Pds 0 -Ps 6 -Pss 4 -Pc REQUEST 
r -t 1.001248167 -Hs 16 -Hd -2 -Ni 16 -Nx 692.00 -Ny 332.00 -Nz 0.00 -Ne -1.000000 -Nl RTR -Nw --- -Ma 0 -Md ffffffff -Ms 6 -Mt 800 -Is 6.255 -Id -1.255 -It AODV -Il 48 -If 0 -Ii 0 -Iv 30 -P aodv -Pt 0x2 -Ph 1 -Pb 1 -Pd 29 -Pds 0 -Ps 6 -Pss 4 -Pc REQUEST 
r -t 1.001248167 -Hs 7 -Hd -2 -Ni 7 -Nx 742.00 -Ny 382.00 -Nz 0.00 -Ne -1.000000 -Nl RTR -Nw --- -Ma 0 -Md ffffffff -Ms 6 -Mt 800 -Is 6.255 -Id -1.255 -It AODV -Il 48 -If 0 -Ii 0 -Iv 30 -P aodv -Pt 0x2 -Ph 1 -Pb 1 -Pd 29 -Pds 0 -Ps 6 -Pss 4 -Pc REQUEST 
r -t 1.001248236 -Hs 15 -Hd -2 -Ni 15 -Nx 642.00 -Ny 332.00 -Nz 0.00 -Ne -1.000000 -Nl RTR -Nw --- -Ma 0 -Md ffffffff -Ms 6 -Mt 800 -Is 6.255 -Id -1.255 -It AODV -Il 48 -If 0 -Ii 0 -Iv 30 -P aodv -Pt 0x2 -Ph 1 -Pb 1 -Pd 29 -Pds 0 -Ps 6 -Pss 4 -Pc REQUEST 
r -t 1.001248236 -Hs 17 -Hd -2 -Ni 17 -Nx 742.00 -Ny 332.00 -Nz 0.00 -Ne -1.000000 -Nl RTR -Nw --- -Ma 0 -Md ffffffff -Ms 6 -Mt 800 -Is 6.255 -Id -1.255 -It AODV -Il 48 -If 0 -Ii 0 -Iv 30 -P aodv -Pt 0x2 -Ph 1 -Pb 1 -Pd 29 -Pds 0 -Ps 6 -Pss 4 -Pc REQUEST 
r -t 1.001248333 -Hs 4 -Hd -2 -Ni 4 -Nx 592.00 -Ny 382.00 -Nz 0.00 -Ne -1.000000 -Nl RTR -Nw --- -Ma 0 -Md ffffffff -Ms 6 -Mt 800 -Is 6.255 -Id -1.255 -It AODV -Il 48 -If 0 -Ii 0 -Iv 30 -P aodv -Pt 0x2 -Ph 1 -Pb 1 -Pd 29 -Pds 0 -Ps 6 -Pss 4 -Pc REQUEST 
r -t 1.001248333 -Hs 26 -Hd -2 -Ni 26 -Nx 692.00 -Ny 282.00 -Nz 0.00 -Ne -1.000000 -Nl RTR -Nw --- -Ma 0 -Md ffffffff -Ms 6 -Mt 800 -Is 6.255 -Id -1.255 -It AODV -Il 48 -If 0 -Ii 0 -Iv 30 -P aodv -Pt 0x2 -Ph 1 -Pb 1 -Pd 29 -Pds 0 -Ps 6 -Pss 4 -Pc REQUEST 
r -t 1.001248333 -Hs 8 -Hd -2 -Ni 8 -Nx 792.00 -Ny 382.00 -Nz 0.00 -Ne -1.000000 -Nl RTR -Nw --- -Ma 0 -Md ffffffff -Ms 6 -Mt 800 -Is 6.255 -Id -1.255 -It AODV -Il 48 -If 0 -Ii 0 -Iv 30 -P aodv -Pt 0x2 -Ph 1 -Pb 1 -Pd 29 -Pds 0 -Ps 6 -Pss 4 -Pc REQUEST 
r -t 1.001248373 -Hs 25 -Hd -2 -Ni 25 -Nx 642.00 -Ny 282.00 -Nz 0.00 -Ne -1.000000 -Nl RTR -Nw --- -Ma 0 -Md ffffffff -Ms 6 -Mt 800 -Is 6.255 -Id -1.255 -It AODV -Il 48 -If 0 -Ii 0 -Iv 30 -P aodv -Pt 0x2 -Ph 1 -Pb 1 -Pd 29 -Pds 0 -Ps 6 -Pss 4 -Pc REQUEST 
r -t 1.001248373 -Hs 14 -Hd -2 -Ni 14 -Nx 592.00 -Ny 332.00 -Nz 0.00 -Ne -1.000000 -Nl RTR -Nw --- -Ma 0 -Md ffffffff -Ms 6 -Mt 800 -Is 6.255 -Id -1.255 -It AODV -Il 48 -If 0 -Ii 0 -Iv 30 -P aodv -Pt 0x2 -Ph 1 -Pb 1 -Pd 29 -Pds 0 -Ps 6 -Pss 4 -Pc REQUEST 
r -t 1.001248373 -Hs 27 -Hd -2 -Ni 27 -Nx 742.00 -Ny 282.00 -Nz 0.00 -Ne -1.000000 -Nl RTR -Nw --- -Ma 0 -Md ffffffff -Ms 6 -Mt 800 -Is 6.255 -Id -1.255 -It AODV -Il 48 -If 0 -Ii 0 -Iv 30 -P aodv -Pt 0x2 -Ph 1 -Pb 1 -Pd 29 -Pds 0 -Ps 6 -Pss 4 -Pc REQUEST 
r -t 1.001248373 -Hs 18 -Hd -2 -Ni 18 -Nx 792.00 -Ny 332.00 -Nz 0.00 -Ne -1.000000 -Nl RTR -Nw --- -Ma 0 -Md ffffffff -Ms 6 -Mt 800 -Is 6.255 -Id -1.255 -It AODV -Il 48 -If 0 -Ii 0 -Iv 30 -P aodv -Pt 0x2 -Ph 1 -Pb 1 -Pd 29 -Pds 0 -Ps 6 -Pss 4 -Pc REQUEST 
r -t 1.001248471 -Hs 24 -Hd -2 -Ni 24 -Nx 592.00 -Ny 282.00 -Nz 0.00 -Ne -1.000000 -Nl RTR -Nw --- -Ma 0 -Md ffffffff -Ms 6 -Mt 800 -Is 6.255 -Id -1.255 -It AODV -Il 48 -If 0 -Ii 0 -Iv 30 -P aodv -Pt 0x2 -Ph 1 -Pb 1 -Pd 29 -Pds 0 -Ps 6 -Pss 4 -Pc REQUEST 
r -t 1.001248471 -Hs 28 -Hd -2 -Ni 28 -Nx 792.00 -Ny 282.00 -Nz 0.00 -Ne -1.000000 -Nl RTR -Nw --- -Ma 0 -Md ffffffff -Ms 6 -Mt 800 -Is 6.255 -Id -1.255 -It AODV -Il 48 -If 0 -Ii 0 -Iv 30 -P aodv -Pt 0x2 -Ph 1 -Pb 1 -Pd 29 -Pds 0 -Ps 6 -Pss 4 -Pc REQUEST 
r -t 1.001248500 -Hs 3 -Hd -2 -Ni 3 -Nx 542.00 -Ny 382.00 -Nz 0.00 -Ne -1.000000 -Nl RTR -Nw --- -Ma 0 -Md ffffffff -Ms 6 -Mt 800 -Is 6.255 -Id -1.255 -It AODV -Il 48 -If 0 -Ii 0 -Iv 30 -P aodv -Pt 0x2 -Ph 1 -Pb 1 -Pd 29 -Pds 0 -Ps 6 -Pss 4 -Pc REQUEST 
r -t 1.001248500 -Hs 36 -Hd -2 -Ni 36 -Nx 692.00 -Ny 232.00 -Nz 0.00 -Ne -1.000000 -Nl RTR -Nw --- -Ma 0 -Md ffffffff -Ms 6 -Mt 800 -Is 6.255 -Id -1.255 -It AODV -Il 48 -If 0 -Ii 0 -Iv 30 -P aodv -Pt 0x2 -Ph 1 -Pb 1 -Pd 29 -Pds 0 -Ps 6 -Pss 4 -Pc REQUEST 
r -t 1.001248500 -Hs 9 -Hd -2 -Ni 9 -Nx 842.00 -Ny 382.00 -Nz 0.00 -Ne -1.000000 -Nl RTR -Nw --- -Ma 0 -Md ffffffff -Ms 6 -Mt 800 -Is 6.255 -Id -1.255 -It AODV -Il 48 -If 0 -Ii 0 -Iv 30 -P aodv -Pt 0x2 -Ph 1 -Pb 1 -Pd 29 -Pds 0 -Ps 6 -Pss 4 -Pc REQUEST 
r -t 1.001248527 -Hs 35 -Hd -2 -Ni 35 -Nx 642.00 -Ny 232.00 -Nz 0.00 -Ne -1.000000 -Nl RTR -Nw --- -Ma 0 -Md ffffffff -Ms 6 -Mt 800 -Is 6.255 -Id -1.255 -It AODV -Il 48 -If 0 -Ii 0 -Iv 30 -P aodv -Pt 0x2 -Ph 1 -Pb 1 -Pd 29 -Pds 0 -Ps 6 -Pss 4 -Pc REQUEST 
r -t 1.001248527 -Hs 13 -Hd -2 -Ni 13 -Nx 542.00 -Ny 332.00 -Nz 0.00 -Ne -1.000000 -Nl RTR -Nw --- -Ma 0 -Md ffffffff -Ms 6 -Mt 800 -Is 6.255 -Id -1.255 -It AODV -Il 48 -If 0 -Ii 0 -Iv 30 -P aodv -Pt 0x2 -Ph 1 -Pb 1 -Pd 29 -Pds 0 -Ps 6 -Pss 4 -Pc REQUEST 
r -t 1.001248527 -Hs 37 -Hd -2 -Ni 37 -Nx 742.00 -Ny 232.00 -Nz 0.00 -Ne -1.000000 -Nl RTR -Nw --- -Ma 0 -Md ffffffff -Ms 6 -Mt 800 -Is 6.255 -Id -1.255 -It AODV -Il 48 -If 0 -Ii 0 -Iv 30 -P aodv -Pt 0x2 -Ph 1 -Pb 1 -Pd 29 -Pds 0 -Ps 6 -Pss 4 -Pc REQUEST 
r -t 1.001248527 -Hs 19 -Hd -2 -Ni 19 -Nx 842.00 -Ny 332.00 -Nz 0.00 -Ne -1.000000 -Nl RTR -Nw --- -Ma 0 -Md ffffffff -Ms 6 -Mt 800 -Is 6.255 -Id -1.255 -It AODV -Il 48 -If 0 -Ii 0 -Iv 30 -P aodv -Pt 0x2 -Ph 1 -Pb 1 -Pd 29 -Pds 0 -Ps 6 -Pss 4 -Pc REQUEST 
r -t 1.001248601 -Hs 34 -Hd -2 -Ni 34 -Nx 592.00 -Ny 232.00 -Nz 0.00 -Ne -1.000000 -Nl RTR -Nw --- -Ma 0 -Md ffffffff -Ms 6 -Mt 800 -Is 6.255 -Id -1.255 -It AODV -Il 48 -If 0 -Ii 0 -Iv 30 -P aodv -Pt 0x2 -Ph 1 -Pb 1 -Pd 29 -Pds 0 -Ps 6 -Pss 4 -Pc REQUEST 
r -t 1.001248601 -Hs 23 -Hd -2 -Ni 23 -Nx 542.00 -Ny 282.00 -Nz 0.00 -Ne -1.000000 -Nl RTR -Nw --- -Ma 0 -Md ffffffff -Ms 6 -Mt 800 -Is 6.255 -Id -1.255 -It AODV -Il 48 -If 0 -Ii 0 -Iv 30 -P aodv -Pt 0x2 -Ph 1 -Pb 1 -Pd 29 -Pds 0 -Ps 6 -Pss 4 -Pc REQUEST 
r -t 1.001248601 -Hs 38 -Hd -2 -Ni 38 -Nx 792.00 -Ny 232.00 -Nz 0.00 -Ne -1.000000 -Nl RTR -Nw --- -Ma 0 -Md ffffffff -Ms 6 -Mt 800 -Is 6.255 -Id -1.255 -It AODV -Il 48 -If 0 -Ii 0 -Iv 30 -P aodv -Pt 0x2 -Ph 1 -Pb 1 -Pd 29 -Pds 0 -Ps 6 -Pss 4 -Pc REQUEST 
r -t 1.001248601 -Hs 29 -Hd -2 -Ni 29 -Nx 842.00 -Ny 282.00 -Nz 0.00 -Ne -1.000000 -Nl RTR -Nw --- -Ma 0 -Md ffffffff -Ms 6 -Mt 800 -Is 6.255 -Id -1.255 -It AODV -Il 48 -If 0 -Ii 0 -Iv 30 -P aodv -Pt 0x2 -Ph 1 -Pb 1 -Pd 29 -Pds 0 -Ps 6 -Pss 4 -Pc REQUEST 
s -t 1.001248601 -Hs 29 -Hd 6 -Ni 29 -Nx 842.00 -Ny 282.00 -Nz 0.00 -Ne -1.000000 -Nl RTR -Nw --- -Ma 0 -Md 0 -Ms 0 -Mt 0 -Is 29.255 -Id 6.255 -It AODV -Il 44 -If 0 -Ii 0 -Iv 30 -P aodv -Pt 0x4 -Ph 1 -Pd 29 -Pds 4 -Pl 10.000000 -Pc REPLY 
r -t 1.001248667 -Hs 2 -Hd -2 -Ni 2 -Nx 492.00 -Ny 382.00 -Nz 0.00 -Ne -1.000000 -Nl RTR -Nw --- -Ma 0 -Md ffffffff -Ms 6 -Mt 800 -Is 6.255 -Id -1.255 -It AODV -Il 48 -If 0 -Ii 0 -Iv 30 -P aodv -Pt 0x2 -Ph 1 -Pb 1 -Pd 29 -Pds 0 -Ps 6 -Pss 4 -Pc REQUEST 
r -t 1.001248667 -Hs 46 -Hd -2 -Ni 46 -Nx 692.00 -Ny 182.00 -Nz 0.00 -Ne -1.000000 -Nl RTR -Nw --- -Ma 0 -Md ffffffff -Ms 6 -Mt 800 -Is 6.255 -Id -1.255 -It AODV -Il 48 -If 0 -Ii 0 -Iv 30 -P aodv -Pt 0x2 -Ph 1 -Pb 1 -Pd 29 -Pds 0 -Ps 6 -Pss 4 -Pc REQUEST 
r -t 1.001248687 -Hs 45 -Hd -2 -Ni 45 -Nx 642.00 -Ny 182.00 -Nz 0.00 -Ne -1.000000 -Nl RTR -Nw --- -Ma 0 -Md ffffffff -Ms 6 -Mt 800 -Is 6.255 -Id -1.255 -It AODV -Il 48 -If 0 -Ii 0 -Iv 30 -P aodv -Pt 0x2 -Ph 1 -Pb 1 -Pd 29 -Pds 0 -Ps 6 -Pss 4 -Pc REQUEST 
r -t 1.001248687 -Hs 12 -Hd -2 -Ni 12 -Nx 492.00 -Ny 332.00 -Nz 0.00 -Ne -1.000000 -Nl RTR -Nw --- -Ma 0 -Md ffffffff -Ms 6 -Mt 800 -Is 6.255 -Id -1.255 -It AODV -Il 48 -If 0 -Ii 0 -Iv 30 -P aodv -Pt 0x2 -Ph 1 -Pb 1 -Pd 29 -Pds 0 -Ps 6 -Pss 4 -Pc REQUEST 
r -t 1.001248687 -Hs 47 -Hd -2 -Ni 47 -Nx 742.00 -Ny 182.00 -Nz 0.00 -Ne -1.000000 -Nl RTR -Nw --- -Ma 0 -Md ffffffff -Ms 6 -Mt 800 -Is 6.255 -Id -1.255 -It AODV -Il 48 -If 0 -Ii 0 -Iv 30 -P aodv -Pt 0x2 -Ph 1 -Pb 1 -Pd 29 -Pds 0 -Ps 6 -Pss 4 -Pc REQUEST 
r -t 1.001248707 -Hs 33 -Hd -2 -Ni 33 -Nx 542.00 -Ny 232.00 -Nz 0.00 -Ne -1.000000 -Nl RTR -Nw --- -Ma 0 -Md ffffffff -Ms 6 -Mt 800 -Is 6.255 -Id -1.255 -It AODV -Il 48 -If 0 -Ii 0 -Iv 30 -P aodv -Pt 0x2 -Ph 1 -Pb 1 -Pd 29 -Pds 0 -Ps 6 -Pss 4 -Pc REQUEST 
r -t 1.001248707 -Hs 39 -Hd -2 -Ni 39 -Nx 842.00 -Ny 232.00 -Nz 0.00 -Ne -1.000000 -Nl RTR -Nw --- -Ma 0 -Md ffffffff -Ms 6 -Mt 800 -Is 6.255 -Id -1.255 -It AODV -Il 48 -If 0 -Ii 0 -Iv 30 -P aodv -Pt 0x2 -Ph 1 -Pb 1 -Pd 29 -Pds 0 -Ps 6 -Pss 4 -Pc REQUEST 
r -t 1.001248745 -Hs 44 -Hd -2 -Ni 44 -Nx 592.00 -Ny 182.00 -Nz 0.00 -Ne -1.000000 -Nl RTR -Nw --- -Ma 0 -Md ffffffff -Ms 6 -Mt 800 -Is 6.255 -Id -1.255 -It AODV -Il 48 -If 0 -Ii 0 -Iv 30 -P aodv -Pt 0x2 -Ph 1 -Pb 1 -Pd 29 -Pds 0 -Ps 6 -Pss 4 -Pc REQUEST 
r -t 1.001248745 -Hs 22 -Hd -2 -Ni 22 -Nx 492.00 -Ny 282.00 -Nz 0.00 -Ne -1.000000 -Nl RTR -Nw --- -Ma 0 -Md ffffffff -Ms 6 -Mt 800 -Is 6.255 -Id -1.255 -It AODV -Il 48 -If 0 -Ii 0 -Iv 30 -P aodv -Pt 0x2 -Ph 1 -Pb 1 -Pd 29 -Pds 0 -Ps 6 -Pss 4 -Pc REQUEST 
r -t 1.001248745 -Hs 48 -Hd -2 -Ni 48 -Nx 792.00 -Ny 182.00 -Nz 0.00 -Ne -1.000000 -Nl RTR -Nw --- -Ma 0 -Md ffffffff -Ms 6 -Mt 800 -Is 6.255 -Id -1.255 -It AODV -Il 48 -If 0 -Ii 0 -Iv 30 -P aodv -Pt 0x2 -Ph 1 -Pb 1 -Pd 29 -Pds 0 -Ps 6 -Pss 4 -Pc REQUEST 
r -t 1.001248833 -Hs 43 -Hd -2 -Ni 43 -Nx 542.00 -Ny 182.00 -Nz 0.00 -Ne -1.000000 -Nl RTR -Nw --- -Ma 0 -Md ffffffff -Ms 6 -Mt 800 -Is 6.255 -Id -1.255 -It AODV -Il 48 -If 0 -Ii 0 -Iv 30 -P aodv -Pt 0x2 -Ph 1 -Pb 1 -Pd 29 -Pds 0 -Ps 6 -Pss 4 -Pc REQUEST 
r -t 1.001248833 -Hs 32 -Hd -2 -Ni 32 -Nx 492.00 -Ny 232.00 -Nz 0.00 -Ne -1.000000 -Nl RTR -Nw --- -Ma 0 -Md ffffffff -Ms 6 -Mt 800 -Is 6.255 -Id -1.255 -It AODV -Il 48 -If 0 -Ii 0 -Iv 30 -P aodv -Pt 0x2 -Ph 1 -Pb 1 -Pd 29 -Pds 0 -Ps 6 -Pss 4 -Pc REQUEST 
r -t 1.001248833 -Hs 1 -Hd -2 -Ni 1 -Nx 442.00 -Ny 382.00 -Nz 0.00 -Ne -1.000000 -Nl RTR -Nw --- -Ma 0 -Md ffffffff -Ms 6 -Mt 800 -Is 6.255 -Id -1.255 -It AODV -Il 48 -If 0 -Ii 0 -Iv 30 -P aodv -Pt 0x2 -Ph 1 -Pb 1 -Pd 29 -Pds 0 -Ps 6 -Pss 4 -Pc REQUEST 
r -t 1.001248833 -Hs 49 -Hd -2 -Ni 49 -Nx 842.00 -Ny 182.00 -Nz 0.00 -Ne -1.000000 -Nl RTR -Nw --- -Ma 0 -Md ffffffff -Ms 6 -Mt 800 -Is 6.255 -Id -1.255 -It AODV -Il 48 -If 0 -Ii 0 -Iv 30 -P aodv -Pt 0x2 -Ph 1 -Pb 1 -Pd 29 -Pds 0 -Ps 6 -Pss 4 -Pc REQUEST 
s -t 1.001363601 -Hs 29 -Hd -2 -Ni 29 -Nx 842.00 -Ny 282.00 -Nz 0.00 -Ne -1.000000 -Nl MAC -Nw --- -Ma 0 -Md ffffffff -Ms 1d -Mt 806 -P arp -Po REQUEST -Pms 29 -Ps 29 -Pmd 0 -Pd 6 
s -t 1.001676318 -Hs 25 -Hd -2 -Ni 25 -Nx 642.00 -Ny 282.00 -Nz 0.00 -Ne -1.000000 -Nl RTR -Nw --- -Ma 0 -Md ffffffff -Ms 6 -Mt 800 -Is 25.255 -Id -1.255 -It AODV -Il 48 -If 0 -Ii 0 -Iv 29 -P aodv -Pt 0x2 -Ph 2 -Pb 1 -Pd 29 -Pds 0 -Ps 6 -Pss 4 -Pc REQUEST 
r -t 1.002051768 -Hs 19 -Hd -2 -Ni 19 -Nx 842.00 -Ny 332.00 -Nz 0.00 -Ne -1.000000 -Nl MAC -Nw --- -Ma 0 -Md ffffffff -Ms 1d -Mt 806 -P arp -Po REQUEST -Pms 29 -Ps 29 -Pmd 0 -Pd 6 
r -t 1.002051768 -Hs 28 -Hd -2 -Ni 28 -Nx 792.00 -Ny 282.00 -Nz 0.00 -Ne -1.000000 -Nl MAC -Nw --- -Ma 0 -Md ffffffff -Ms 1d -Mt 806 -P arp -Po REQUEST -Pms 29 -Ps 29 -Pmd 0 -Pd 6 
r -t 1.002051768 -Hs 39 -Hd -2 -Ni 39 -Nx 842.00 -Ny 232.00 -Nz 0.00 -Ne -1.000000 -Nl MAC -Nw --- -Ma 0 -Md ffffffff -Ms 1d -Mt 806 -P arp -Po REQUEST -Pms 29 -Ps 29 -Pmd 0 -Pd 6 
r -t 1.002051837 -Hs 38 -Hd -2 -Ni 38 -Nx 792.00 -Ny 232.00 -Nz 0.00 -Ne -1.000000 -Nl MAC -Nw --- -Ma 0 -Md ffffffff -Ms 1d -Mt 806 -P arp -Po REQUEST -Pms 29 -Ps 29 -Pmd 0 -Pd 6 
r -t 1.002051837 -Hs 18 -Hd -2 -Ni 18 -Nx 792.00 -Ny 332.00 -Nz 0.00 -Ne -1.000000 -Nl MAC -Nw --- -Ma 0 -Md ffffffff -Ms 1d -Mt 806 -P arp -Po REQUEST -Pms 29 -Ps 29 -Pmd 0 -Pd 6 
r -t 1.002051934 -Hs 9 -Hd -2 -Ni 9 -Nx 842.00 -Ny 382.00 -Nz 0.00 -Ne -1.000000 -Nl MAC -Nw --- -Ma 0 -Md ffffffff -Ms 1d -Mt 806 -P arp -Po REQUEST -Pms 29 -Ps 29 -Pmd 0 -Pd 6 
r -t 1.002051934 -Hs 27 -Hd -2 -Ni 27 -Nx 742.00 -Ny 282.00 -Nz 0.00 -Ne -1.000000 -Nl MAC -Nw --- -Ma 0 -Md ffffffff -Ms 1d -Mt 806 -P arp -Po REQUEST -Pms 29 -Ps 29 -Pmd 0 -Pd 6 
r -t 1.002051934 -Hs 49 -Hd -2 -Ni 49 -Nx 842.00 -Ny 182.00 -Nz 0.00 -Ne -1.000000 -Nl MAC -Nw --- -Ma 0 -Md ffffffff -Ms 1d -Mt 806 -P arp -Po REQUEST -Pms 29 -Ps 29 -Pmd 0 -Pd 6 
r -t 1.002051974 -Hs 48 -Hd -2 -Ni 48 -Nx 792.00 -Ny 182.00 -Nz 0.00 -Ne -1.000000 -Nl MAC -Nw --- -Ma 0 -Md ffffffff -Ms 1d -Mt 806 -P arp -Po REQUEST -Pms 29 -Ps 29 -Pmd 0 -Pd 6 
r -t 1.002051974 -Hs 8 -Hd -2 -Ni 8 -Nx 792.00 -Ny 382.00 -Nz 0.00 -Ne -1.000000 -Nl MAC -Nw --- -Ma 0 -Md ffffffff -Ms 1d -Mt 806 -P arp -Po REQUEST -Pms 29 -Ps 29 -Pmd 0 -Pd 6 
r -t 1.002051974 -Hs 37 -Hd -2 -Ni 37 -Nx 742.00 -Ny 232.00 -Nz 0.00 -Ne -1.000000 -Nl MAC -Nw --- -Ma 0 -Md ffffffff -Ms 1d -Mt 806 -P arp -Po REQUEST -Pms 29 -Ps 29 -Pmd 0 -Pd 6 
r -t 1.002051974 -Hs 17 -Hd -2 -Ni 17 -Nx 742.00 -Ny 332.00 -Nz 0.00 -Ne -1.000000 -Nl MAC -Nw --- -Ma 0 -Md ffffffff -Ms 1d -Mt 806 -P arp -Po REQUEST -Pms 29 -Ps 29 -Pmd 0 -Pd 6 
r -t 1.002052072 -Hs 47 -Hd -2 -Ni 47 -Nx 742.00 -Ny 182.00 -Nz 0.00 -Ne -1.000000 -Nl MAC -Nw --- -Ma 0 -Md ffffffff -Ms 1d -Mt 806 -P arp -Po REQUEST -Pms 29 -Ps 29 -Pmd 0 -Pd 6 
r -t 1.002052072 -Hs 7 -Hd -2 -Ni 7 -Nx 742.00 -Ny 382.00 -Nz 0.00 -Ne -1.000000 -Nl MAC -Nw --- -Ma 0 -Md ffffffff -Ms 1d -Mt 806 -P arp -Po REQUEST -Pms 29 -Ps 29 -Pmd 0 -Pd 6 
r -t 1.002052101 -Hs 26 -Hd -2 -Ni 26 -Nx 692.00 -Ny 282.00 -Nz 0.00 -Ne -1.000000 -Nl MAC -Nw --- -Ma 0 -Md ffffffff -Ms 1d -Mt 806 -P arp -Po REQUEST -Pms 29 -Ps 29 -Pmd 0 -Pd 6 
r -t 1.002052128 -Hs 36 -Hd -2 -Ni 36 -Nx 692.00 -Ny 232.00 -Nz 0.00 -Ne -1.000000 -Nl MAC -Nw --- -Ma 0 -Md ffffffff -Ms 1d -Mt 806 -P arp -Po REQUEST -Pms 29 -Ps 29 -Pmd 0 -Pd 6 
r -t 1.002052128 -Hs 16 -Hd -2 -Ni 16 -Nx 692.00 -Ny 332.00 -Nz 0.00 -Ne -1.000000 -Nl MAC -Nw --- -Ma 0 -Md ffffffff -Ms 1d -Mt 806 -P arp -Po REQUEST -Pms 29 -Ps 29 -Pmd 0 -Pd 6 
r -t 1.002052202 -Hs 46 -Hd -2 -Ni 46 -Nx 692.00 -Ny 182.00 -Nz 0.00 -Ne -1.000000 -Nl MAC -Nw --- -Ma 0 -Md ffffffff -Ms 1d -Mt 806 -P arp -Po REQUEST -Pms 29 -Ps 29 -Pmd 0 -Pd 6 
r -t 1.002052202 -Hs 6 -Hd -2 -Ni 6 -Nx 692.00 -Ny 382.00 -Nz 0.00 -Ne -1.000000 -Nl MAC -Nw --- -Ma 0 -Md ffffffff -Ms 1d -Mt 806 -P arp -Po REQUEST -Pms 29 -Ps 29 -Pmd 0 -Pd 6 
r -t 1.002052268 -Hs 25 -Hd -2 -Ni 25 -Nx 642.00 -Ny 282.00 -Nz 0.00 -Ne -1.000000 -Nl MAC -Nw --- -Ma 0 -Md ffffffff -Ms 1d -Mt 806 -P arp -Po REQUEST -Pms 29 -Ps 29 -Pmd 0 -Pd 6 
r -t 1.002052288 -Hs 35 -Hd -2 -Ni 35 -Nx 642.00 -Ny 232.00 -Nz 0.00 -Ne -1.000000 -Nl MAC -Nw --- -Ma 0 -Md ffffffff -Ms 1d -Mt 806 -P arp -Po REQUEST -Pms 29 -Ps 29 -Pmd 0 -Pd 6 
r -t 1.002052288 -Hs 15 -Hd -2 -Ni 15 -Nx 642.00 -Ny 332.00 -Nz 0.00 -Ne -1.000000 -Nl MAC -Nw --- -Ma 0 -Md ffffffff -Ms 1d -Mt 806 -P arp -Po REQUEST -Pms 29 -Ps 29 -Pmd 0 -Pd 6 
r -t 1.002052346 -Hs 45 -Hd -2 -Ni 45 -Nx 642.00 -Ny 182.00 -Nz 0.00 -Ne -1.000000 -Nl MAC -Nw --- -Ma 0 -Md ffffffff -Ms 1d -Mt 806 -P arp -Po REQUEST -Pms 29 -Ps 29 -Pmd 0 -Pd 6 
r -t 1.002052346 -Hs 5 -Hd -2 -Ni 5 -Nx 642.00 -Ny 382.00 -Nz 0.00 -Ne -1.000000 -Nl MAC -Nw --- -Ma 0 -Md ffffffff -Ms 1d -Mt 806 -P arp -Po REQUEST -Pms 29 -Ps 29 -Pmd 0 -Pd 6 
r -t 1.002052434 -Hs 24 -Hd -2 -Ni 24 -Nx 592.00 -Ny 282.00 -Nz 0.00 -Ne -1.000000 -Nl MAC -Nw --- -Ma 0 -Md ffffffff -Ms 1d -Mt 806 -P arp -Po REQUEST -Pms 29 -Ps 29 -Pmd 0 -Pd 6 
s -t 1.002189889 -Hs 3 -Hd -2 -Ni 3 -Nx 542.00 -Ny 382.00 -Nz 0.00 -Ne -1.000000 -Nl RTR -Nw --- -Ma 0 -Md ffffffff -Ms 6 -Mt 800 -Is 3.255 -Id -1.255 -It AODV -Il 48 -If 0 -Ii 0 -Iv 29 -P aodv -Pt 0x2 -Ph 2 -Pb 1 -Pd 29 -Pds 0 -Ps 6 -Pss 4 -Pc REQUEST 
s -t 1.002222268 -Hs 25 -Hd -2 -Ni 25 -Nx 642.00 -Ny 282.00 -Nz 0.00 -Ne -1.000000 -Nl MAC -Nw --- -Ma 0 -Md ffffffff -Ms 19 -Mt 800 -Is 25.255 -Id -1.255 -It AODV -Il 106 -If 0 -Ii 0 -Iv 29 -P aodv -Pt 0x2 -Ph 2 -Pb 1 -Pd 29 -Pds 0 -Ps 6 -Pss 4 -Pc REQUEST 
s -t 1.002340730 -Hs 44 -Hd -2 -Ni 44 -Nx 592.00 -Ny 182.00 -Nz 0.00 -Ne -1.000000 -Nl RTR -Nw --- -Ma 0 -Md ffffffff -Ms 6 -Mt 800 -Is 44.255 -Id -1.255 -It AODV -Il 48 -If 0 -Ii 0 -Iv 29 -P aodv -Pt 0x2 -Ph 2 -Pb 1 -Pd 29 -Pds 0 -Ps 6 -Pss 4 -Pc REQUEST 
s -t 1.002369146 -Hs 49 -Hd -2 -Ni 49 -Nx 842.00 -Ny 182.00 -Nz 0.00 -Ne -1.000000 -Nl RTR -Nw --- -Ma 0 -Md ffffffff -Ms 6 -Mt 800 -Is 49.255 -Id -1.255 -It AODV -Il 48 -If 0 -Ii 0 -Iv 29 -P aodv -Pt 0x2 -Ph 2 -Pb 1 -Pd 29 -Pds 0 -Ps 6 -Pss 4 -Pc REQUEST 
s -t 1.002386455 -Hs 27 -Hd -2 -Ni 27 -Nx 742.00 -Ny 282.00 -Nz 0.00 -Ne -1.000000 -Nl RTR -Nw --- -Ma 0 -Md ffffffff -Ms 6 -Mt 800 -Is 27.255 -Id -1.255 -It AODV -Il 48 -If 0 -Ii 0 -Iv 29 -P aodv -Pt 0x2 -Ph 2 -Pb 1 -Pd 29 -Pds 0 -Ps 6 -Pss 4 -Pc REQUEST 
s -t 1.002889787 -Hs 8 -Hd -2 -Ni 8 -Nx 792.00 -Ny 382.00 -Nz 0.00 -Ne -1.000000 -Nl RTR -Nw --- -Ma 0 -Md ffffffff -Ms 6 -Mt 800 -Is 8.255 -Id -1.255 -It AODV -Il 48 -If 0 -Ii 0 -Iv 29 -P aodv -Pt 0x2 -Ph 2 -Pb 1 -Pd 29 -Pds 0 -Ps 6 -Pss 4 -Pc REQUEST 
s -t 1.002996524 -Hs 28 -Hd -2 -Ni 28 -Nx 792.00 -Ny 282.00 -Nz 0.00 -Ne -1.000000 -Nl RTR -Nw --- -Ma 0 -Md ffffffff -Ms 6 -Mt 800 -Is 28.255 -Id -1.255 -It AODV -Il 48 -If 0 -Ii 0 -Iv 29 -P aodv -Pt 0x2 -Ph 2 -Pb 1 -Pd 29 -Pds 0 -Ps 6 -Pss 4 -Pc REQUEST 
r -t 1.003070434 -Hs 15 -Hd -2 -Ni 15 -Nx 642.00 -Ny 332.00 -Nz 0.00 -Ne -1.000000 -Nl MAC -Nw --- -Ma 0 -Md ffffffff -Ms 19 -Mt 800 -Is 25.255 -Id -1.255 -It AODV -Il 48 -If 0 -Ii 0 -Iv 29 -P aodv -Pt 0x2 -Ph 2 -Pb 1 -Pd 29 -Pds 0 -Ps 6 -Pss 4 -Pc REQUEST 
r -t 1.003070434 -Hs 24 -Hd -2 -Ni 24 -Nx 592.00 -Ny 282.00 -Nz 0.00 -Ne -1.000000 -Nl MAC -Nw --- -Ma 0 -Md ffffffff -Ms 19 -Mt 800 -Is 25.255 -Id -1.255 -It AODV -Il 48 -If 0 -Ii 0 -Iv 29 -P aodv -Pt 0x2 -Ph 2 -Pb 1 -Pd 29 -Pds 0 -Ps 6 -Pss 4 -Pc REQUEST 
r -t 1.003070434 -Hs 35 -Hd -2 -Ni 35 -Nx 642.00 -Ny 232.00 -Nz 0.00 -Ne -1.000000 -Nl MAC -Nw --- -Ma 0 -Md ffffffff -Ms 19 -Mt 800 -Is 25.255 -Id -1.255 -It AODV -Il 48 -If 0 -Ii 0 -Iv 29 -P aodv -Pt 0x2 -Ph 2 -Pb 1 -Pd 29 -Pds 0 -Ps 6 -Pss 4 -Pc REQUEST 
r -t 1.003070434 -Hs 26 -Hd -2 -Ni 26 -Nx 692.00 -Ny 282.00 -Nz 0.00 -Ne -1.000000 -Nl MAC -Nw --- -Ma 0 -Md ffffffff -Ms 19 -Mt 800 -Is 25.255 -Id -1.255 -It AODV -Il 48 -If 0 -Ii 0 -Iv 29 -P aodv -Pt 0x2 -Ph 2 -Pb 1 -Pd 29 -Pds 0 -Ps 6 -Pss 4 -Pc REQUEST 
r -t 1.003070503 -Hs 34 -Hd -2 -Ni 34 -Nx 592.00 -Ny 232.00 -Nz 0.00 -Ne -1.000000 -Nl MAC -Nw --- -Ma 0 -Md ffffffff -Ms 19 -Mt 800 -Is 25.255 -Id -1.255 -It AODV -Il 48 -If 0 -Ii 0 -Iv 29 -P aodv -Pt 0x2 -Ph 2 -Pb 1 -Pd 29 -Pds 0 -Ps 6 -Pss 4 -Pc REQUEST 