s -t 1.000000000 -Hs 3 -Hd -2 -Ni 3 -Nx 536.00 -Ny 395.00 -Nz 0.00 -Ne -1.000000 -Nl AGT -Nw --- -Ma 0 -Md 0 -Ms 0 -Mt 0 -Is 3.0 -Id 16.0 -It tcp -Il 40 -If 0 -Ii 0 -Iv 32 -Pn tcp -Ps 0 -Pa 0 -Pf 0 -Po 0 
r -t 1.000000000 -Hs 3 -Hd -2 -Ni 3 -Nx 536.00 -Ny 395.00 -Nz 0.00 -Ne -1.000000 -Nl RTR -Nw --- -Ma 0 -Md 0 -Ms 0 -Mt 0 -Is 3.0 -Id 16.0 -It tcp -Il 40 -If 0 -Ii 0 -Iv 32 -Pn tcp -Ps 0 -Pa 0 -Pf 0 -Po 0 
s -t 1.000000000 -Hs 36 -Hd -2 -Ni 36 -Nx 586.00 -Ny 195.00 -Nz 0.00 -Ne -1.000000 -Nl AGT -Nw --- -Ma 0 -Md 0 -Ms 0 -Mt 0 -Is 36.0 -Id 23.0 -It tcp -Il 40 -If 0 -Ii 1 -Iv 32 -Pn tcp -Ps 0 -Pa 0 -Pf 0 -Po 0 
r -t 1.000000000 -Hs 36 -Hd -2 -Ni 36 -Nx 586.00 -Ny 195.00 -Nz 0.00 -Ne -1.000000 -Nl RTR -Nw --- -Ma 0 -Md 0 -Ms 0 -Mt 0 -Is 36.0 -Id 23.0 -It tcp -Il 40 -If 0 -Ii 1 -Iv 32 -Pn tcp -Ps 0 -Pa 0 -Pf 0 -Po 0 
s -t 1.000000000 -Hs 3 -Hd -2 -Ni 3 -Nx 536.00 -Ny 395.00 -Nz 0.00 -Ne -1.000000 -Nl RTR -Nw --- -Ma 0 -Md 0 -Ms 0 -Mt 0 -Is 3.255 -Id -1.255 -It AODV -Il 48 -If 0 -Ii 0 -Iv 30 -P aodv -Pt 0x2 -Ph 1 -Pb 1 -Pd 16 -Pds 0 -Ps 3 -Pss 4 -Pc REQUEST 
s -t 1.000000000 -Hs 36 -Hd -2 -Ni 36 -Nx 586.00 -Ny 195.00 -Nz 0.00 -Ne -1.000000 -Nl RTR -Nw --- -Ma 0 -Md 0 -Ms 0 -Mt 0 -Is 36.255 -Id -1.255 -It AODV -Il 48 -If 0 -Ii 0 -Iv 30 -P aodv -Pt 0x2 -Ph 1 -Pb 1 -Pd 23 -Pds 0 -Ps 36 -Pss 4 -Pc REQUEST 
s -t 1.000375000 -Hs 36 -Hd -2 -Ni 36 -Nx 586.00 -Ny 195.00 -Nz 0.00 -Ne -1.000000 -Nl MAC -Nw --- -Ma 0 -Md ffffffff -Ms 24 -Mt 800 -Is 36.255 -Id -1.255 -It AODV -Il 106 -If 0 -Ii 0 -Iv 30 -P aodv -Pt 0x2 -Ph 1 -Pb 1 -Pd 23 -Pds 0 -Ps 36 -Pss 4 -Pc REQUEST 
r -t 1.001223167 -Hs 28 -Hd -2 -Ni 28 -Nx 586.00 -Ny 245.00 -Nz 0.00 -Ne -1.000000 -Nl MAC -Nw --- -Ma 0 -Md ffffffff -Ms 24 -Mt 800 -Is 36.255 -Id -1.255 -It AODV -Il 48 -If 0 -Ii 0 -Iv 30 -P aodv -Pt 0x2 -Ph 1 -Pb 1 -Pd 23 -Pds 0 -Ps 36 -Pss 4 -Pc REQUEST 
r -t 1.001223167 -Hs 35 -Hd -2 -Ni 35 -Nx 536.00 -Ny 195.00 -Nz 0.00 -Ne -1.000000 -Nl MAC -Nw --- -Ma 0 -Md ffffffff -Ms 24 -Mt 800 -Is 36.255 -Id -1.255 -It AODV -Il 48 -If 0 -Ii 0 -Iv 30 -P aodv -Pt 0x2 -Ph 1 -Pb 1 -Pd 23 -Pds 0 -Ps 36 -Pss 4 -Pc REQUEST 
r -t 1.001223167 -Hs 37 -Hd -2 -Ni 37 -Nx 636.00 -Ny 195.00 -Nz 0.00 -Ne -1.000000 -Nl MAC -Nw --- -Ma 0 -Md ffffffff -Ms 24 -Mt 800 -Is 36.255 -Id -1.255 -It AODV -Il 48 -If 0 -Ii 0 -Iv 30 -P aodv -Pt 0x2 -Ph 1 -Pb 1 -Pd 23 -Pds 0 -Ps 36 -Pss 4 -Pc REQUEST 
r -t 1.001223236 -Hs 27 -Hd -2 -Ni 27 -Nx 536.00 -Ny 245.00 -Nz 0.00 -Ne -1.000000 -Nl MAC -Nw --- -Ma 0 -Md ffffffff -Ms 24 -Mt 800 -Is 36.255 -Id -1.255 -It AODV -Il 48 -If 0 -Ii 0 -Iv 30 -P aodv -Pt 0x2 -Ph 1 -Pb 1 -Pd 23 -Pds 0 -Ps 36 -Pss 4 -Pc REQUEST 
r -t 1.001223236 -Hs 29 -Hd -2 -Ni 29 -Nx 636.00 -Ny 245.00 -Nz 0.00 -Ne -1.000000 -Nl MAC -Nw --- -Ma 0 -Md ffffffff -Ms 24 -Mt 800 -Is 36.255 -Id -1.255 -It AODV -Il 48 -If 0 -Ii 0 -Iv 30 -P aodv -Pt 0x2 -Ph 1 -Pb 1 -Pd 23 -Pds 0 -Ps 36 -Pss 4 -Pc REQUEST 
r -t 1.001223333 -Hs 20 -Hd -2 -Ni 20 -Nx 586.00 -Ny 295.00 -Nz 0.00 -Ne -1.000000 -Nl MAC -Nw --- -Ma 0 -Md ffffffff -Ms 24 -Mt 800 -Is 36.255 -Id -1.255 -It AODV -Il 48 -If 0 -Ii 0 -Iv 30 -P aodv -Pt 0x2 -Ph 1 -Pb 1 -Pd 23 -Pds 0 -Ps 36 -Pss 4 -Pc REQUEST 
r -t 1.001223333 -Hs 34 -Hd -2 -Ni 34 -Nx 486.00 -Ny 195.00 -Nz 0.00 -Ne -1.000000 -Nl MAC -Nw --- -Ma 0 -Md ffffffff -Ms 24 -Mt 800 -Is 36.255 -Id -1.255 -It AODV -Il 48 -If 0 -Ii 0 -Iv 30 -P aodv -Pt 0x2 -Ph 1 -Pb 1 -Pd 23 -Pds 0 -Ps 36 -Pss 4 -Pc REQUEST 
r -t 1.001223333 -Hs 38 -Hd -2 -Ni 38 -Nx 686.00 -Ny 195.00 -Nz 0.00 -Ne -1.000000 -Nl MAC -Nw --- -Ma 0 -Md ffffffff -Ms 24 -Mt 800 -Is 36.255 -Id -1.255 -It AODV -Il 48 -If 0 -Ii 0 -Iv 30 -P aodv -Pt 0x2 -Ph 1 -Pb 1 -Pd 23 -Pds 0 -Ps 36 -Pss 4 -Pc REQUEST 
r -t 1.001223373 -Hs 19 -Hd -2 -Ni 19 -Nx 536.00 -Ny 295.00 -Nz 0.00 -Ne -1.000000 -Nl MAC -Nw --- -Ma 0 -Md ffffffff -Ms 24 -Mt 800 -Is 36.255 -Id -1.255 -It AODV -Il 48 -If 0 -Ii 0 -Iv 30 -P aodv -Pt 0x2 -Ph 1 -Pb 1 -Pd 23 -Pds 0 -Ps 36 -Pss 4 -Pc REQUEST 
r -t 1.001223373 -Hs 26 -Hd -2 -Ni 26 -Nx 486.00 -Ny 245.00 -Nz 0.00 -Ne -1.000000 -Nl MAC -Nw --- -Ma 0 -Md ffffffff -Ms 24 -Mt 800 -Is 36.255 -Id -1.255 -It AODV -Il 48 -If 0 -Ii 0 -Iv 30 -P aodv -Pt 0x2 -Ph 1 -Pb 1 -Pd 23 -Pds 0 -Ps 36 -Pss 4 -Pc REQUEST 
r -t 1.001223373 -Hs 21 -Hd -2 -Ni 21 -Nx 636.00 -Ny 295.00 -Nz 0.00 -Ne -1.000000 -Nl MAC -Nw --- -Ma 0 -Md ffffffff -Ms 24 -Mt 800 -Is 36.255 -Id -1.255 -It AODV -Il 48 -If 0 -Ii 0 -Iv 30 -P aodv -Pt 0x2 -Ph 1 -Pb 1 -Pd 23 -Pds 0 -Ps 36 -Pss 4 -Pc REQUEST 
r -t 1.001223373 -Hs 30 -Hd -2 -Ni 30 -Nx 686.00 -Ny 245.00 -Nz 0.00 -Ne -1.000000 -Nl MAC -Nw --- -Ma 0 -Md ffffffff -Ms 24 -Mt 800 -Is 36.255 -Id -1.255 -It AODV -Il 48 -If 0 -Ii 0 -Iv 30 -P aodv -Pt 0x2 -Ph 1 -Pb 1 -Pd 23 -Pds 0 -Ps 36 -Pss 4 -Pc REQUEST 
r -t 1.001223471 -Hs 18 -Hd -2 -Ni 18 -Nx 486.00 -Ny 295.00 -Nz 0.00 -Ne -1.000000 -Nl MAC -Nw --- -Ma 0 -Md ffffffff -Ms 24 -Mt 800 -Is 36.255 -Id -1.255 -It AODV -Il 48 -If 0 -Ii 0 -Iv 30 -P aodv -Pt 0x2 -Ph 1 -Pb 1 -Pd 23 -Pds 0 -Ps 36 -Pss 4 -Pc REQUEST 
r -t 1.001223471 -Hs 22 -Hd -2 -Ni 22 -Nx 686.00 -Ny 295.00 -Nz 0.00 -Ne -1.000000 -Nl MAC -Nw --- -Ma 0 -Md ffffffff -Ms 24 -Mt 800 -Is 36.255 -Id -1.255 -It AODV -Il 48 -If 0 -Ii 0 -Iv 30 -P aodv -Pt 0x2 -Ph 1 -Pb 1 -Pd 23 -Pds 0 -Ps 36 -Pss 4 -Pc REQUEST 
r -t 1.001223500 -Hs 12 -Hd -2 -Ni 12 -Nx 586.00 -Ny 345.00 -Nz 0.00 -Ne -1.000000 -Nl MAC -Nw --- -Ma 0 -Md ffffffff -Ms 24 -Mt 800 -Is 36.255 -Id -1.255 -It AODV -Il 48 -If 0 -Ii 0 -Iv 30 -P aodv -Pt 0x2 -Ph 1 -Pb 1 -Pd 23 -Pds 0 -Ps 36 -Pss 4 -Pc REQUEST 
r -t 1.001223500 -Hs 33 -Hd -2 -Ni 33 -Nx 436.00 -Ny 195.00 -Nz 0.00 -Ne -1.000000 -Nl MAC -Nw --- -Ma 0 -Md ffffffff -Ms 24 -Mt 800 -Is 36.255 -Id -1.255 -It AODV -Il 48 -If 0 -Ii 0 -Iv 30 -P aodv -Pt 0x2 -Ph 1 -Pb 1 -Pd 23 -Pds 0 -Ps 36 -Pss 4 -Pc REQUEST 
r -t 1.001223500 -Hs 39 -Hd -2 -Ni 39 -Nx 736.00 -Ny 195.00 -Nz 0.00 -Ne -1.000000 -Nl MAC -Nw --- -Ma 0 -Md ffffffff -Ms 24 -Mt 800 -Is 36.255 -Id -1.255 -It AODV -Il 48 -If 0 -Ii 0 -Iv 30 -P aodv -Pt 0x2 -Ph 1 -Pb 1 -Pd 23 -Pds 0 -Ps 36 -Pss 4 -Pc REQUEST 
r -t 1.001223527 -Hs 11 -Hd -2 -Ni 11 -Nx 536.00 -Ny 345.00 -Nz 0.00 -Ne -1.000000 -Nl MAC -Nw --- -Ma 0 -Md ffffffff -Ms 24 -Mt 800 -Is 36.255 -Id -1.255 -It AODV -Il 48 -If 0 -Ii 0 -Iv 30 -P aodv -Pt 0x2 -Ph 1 -Pb 1 -Pd 23 -Pds 0 -Ps 36 -Pss 4 -Pc REQUEST 
r -t 1.001223527 -Hs 25 -Hd -2 -Ni 25 -Nx 436.00 -Ny 245.00 -Nz 0.00 -Ne -1.000000 -Nl MAC -Nw --- -Ma 0 -Md ffffffff -Ms 24 -Mt 800 -Is 36.255 -Id -1.255 -It AODV -Il 48 -If 0 -Ii 0 -Iv 30 -P aodv -Pt 0x2 -Ph 1 -Pb 1 -Pd 23 -Pds 0 -Ps 36 -Pss 4 -Pc REQUEST 
r -t 1.001223527 -Hs 13 -Hd -2 -Ni 13 -Nx 636.00 -Ny 345.00 -Nz 0.00 -Ne -1.000000 -Nl MAC -Nw --- -Ma 0 -Md ffffffff -Ms 24 -Mt 800 -Is 36.255 -Id -1.255 -It AODV -Il 48 -If 0 -Ii 0 -Iv 30 -P aodv -Pt 0x2 -Ph 1 -Pb 1 -Pd 23 -Pds 0 -Ps 36 -Pss 4 -Pc REQUEST 
r -t 1.001223527 -Hs 31 -Hd -2 -Ni 31 -Nx 736.00 -Ny 245.00 -Nz 0.00 -Ne -1.000000 -Nl MAC -Nw --- -Ma 0 -Md ffffffff -Ms 24 -Mt 800 -Is 36.255 -Id -1.255 -It AODV -Il 48 -If 0 -Ii 0 -Iv 30 -P aodv -Pt 0x2 -Ph 1 -Pb 1 -Pd 23 -Pds 0 -Ps 36 -Pss 4 -Pc REQUEST 
r -t 1.001223601 -Hs 10 -Hd -2 -Ni 10 -Nx 486.00 -Ny 345.00 -Nz 0.00 -Ne -1.000000 -Nl MAC -Nw --- -Ma 0 -Md ffffffff -Ms 24 -Mt 800 -Is 36.255 -Id -1.255 -It AODV -Il 48 -If 0 -Ii 0 -Iv 30 -P aodv -Pt 0x2 -Ph 1 -Pb 1 -Pd 23 -Pds 0 -Ps 36 -Pss 4 -Pc REQUEST 
r -t 1.001223601 -Hs 17 -Hd -2 -Ni 17 -Nx 436.00 -Ny 295.00 -Nz 0.00 -Ne -1.000000 -Nl MAC -Nw --- -Ma 0 -Md ffffffff -Ms 24 -Mt 800 -Is 36.255 -Id -1.255 -It AODV -Il 48 -If 0 -Ii 0 -Iv 30 -P aodv -Pt 0x2 -Ph 1 -Pb 1 -Pd 23 -Pds 0 -Ps 36 -Pss 4 -Pc REQUEST 
r -t 1.001223601 -Hs 14 -Hd -2 -Ni 14 -Nx 686.00 -Ny 345.00 -Nz 0.00 -Ne -1.000000 -Nl MAC -Nw --- -Ma 0 -Md ffffffff -Ms 24 -Mt 800 -Is 36.255 -Id -1.255 -It AODV -Il 48 -If 0 -Ii 0 -Iv 30 -P aodv -Pt 0x2 -Ph 1 -Pb 1 -Pd 23 -Pds 0 -Ps 36 -Pss 4 -Pc REQUEST 
r -t 1.001223601 -Hs 23 -Hd -2 -Ni 23 -Nx 736.00 -Ny 295.00 -Nz 0.00 -Ne -1.000000 -Nl MAC -Nw --- -Ma 0 -Md ffffffff -Ms 24 -Mt 800 -Is 36.255 -Id -1.255 -It AODV -Il 48 -If 0 -Ii 0 -Iv 30 -P aodv -Pt 0x2 -Ph 1 -Pb 1 -Pd 23 -Pds 0 -Ps 36 -Pss 4 -Pc REQUEST 
r -t 1.001223667 -Hs 4 -Hd -2 -Ni 4 -Nx 586.00 -Ny 395.00 -Nz 0.00 -Ne -1.000000 -Nl MAC -Nw --- -Ma 0 -Md ffffffff -Ms 24 -Mt 800 -Is 36.255 -Id -1.255 -It AODV -Il 48 -If 0 -Ii 0 -Iv 30 -P aodv -Pt 0x2 -Ph 1 -Pb 1 -Pd 23 -Pds 0 -Ps 36 -Pss 4 -Pc REQUEST 
r -t 1.001223667 -Hs 32 -Hd -2 -Ni 32 -Nx 386.00 -Ny 195.00 -Nz 0.00 -Ne -1.000000 -Nl MAC -Nw --- -Ma 0 -Md ffffffff -Ms 24 -Mt 800 -Is 36.255 -Id -1.255 -It AODV -Il 48 -If 0 -Ii 0 -Iv 30 -P aodv -Pt 0x2 -Ph 1 -Pb 1 -Pd 23 -Pds 0 -Ps 36 -Pss 4 -Pc REQUEST 
r -t 1.001223687 -Hs 3 -Hd -2 -Ni 3 -Nx 536.00 -Ny 395.00 -Nz 0.00 -Ne -1.000000 -Nl MAC -Nw --- -Ma 0 -Md ffffffff -Ms 24 -Mt 800 -Is 36.255 -Id -1.255 -It AODV -Il 48 -If 0 -Ii 0 -Iv 30 -P aodv -Pt 0x2 -Ph 1 -Pb 1 -Pd 23 -Pds 0 -Ps 36 -Pss 4 -Pc REQUEST 
r -t 1.001223687 -Hs 24 -Hd -2 -Ni 24 -Nx 386.00 -Ny 245.00 -Nz 0.00 -Ne -1.000000 -Nl MAC -Nw --- -Ma 0 -Md ffffffff -Ms 24 -Mt 800 -Is 36.255 -Id -1.255 -It AODV -Il 48 -If 0 -Ii 0 -Iv 30 -P aodv -Pt 0x2 -Ph 1 -Pb 1 -Pd 23 -Pds 0 -Ps 36 -Pss 4 -Pc REQUEST 
r -t 1.001223687 -Hs 5 -Hd -2 -Ni 5 -Nx 636.00 -Ny 395.00 -Nz 0.00 -Ne -1.000000 -Nl MAC -Nw --- -Ma 0 -Md ffffffff -Ms 24 -Mt 800 -Is 36.255 -Id -1.255 -It AODV -Il 48 -If 0 -Ii 0 -Iv 30 -P aodv -Pt 0x2 -Ph 1 -Pb 1 -Pd 23 -Pds 0 -Ps 36 -Pss 4 -Pc REQUEST 
r -t 1.001223707 -Hs 9 -Hd -2 -Ni 9 -Nx 436.00 -Ny 345.00 -Nz 0.00 -Ne -1.000000 -Nl MAC -Nw --- -Ma 0 -Md ffffffff -Ms 24 -Mt 800 -Is 36.255 -Id -1.255 -It AODV -Il 48 -If 0 -Ii 0 -Iv 30 -P aodv -Pt 0x2 -Ph 1 -Pb 1 -Pd 23 -Pds 0 -Ps 36 -Pss 4 -Pc REQUEST 
r -t 1.001223707 -Hs 15 -Hd -2 -Ni 15 -Nx 736.00 -Ny 345.00 -Nz 0.00 -Ne -1.000000 -Nl MAC -Nw --- -Ma 0 -Md ffffffff -Ms 24 -Mt 800 -Is 36.255 -Id -1.255 -It AODV -Il 48 -If 0 -Ii 0 -Iv 30 -P aodv -Pt 0x2 -Ph 1 -Pb 1 -Pd 23 -Pds 0 -Ps 36 -Pss 4 -Pc REQUEST 
r -t 1.001223745 -Hs 2 -Hd -2 -Ni 2 -Nx 486.00 -Ny 395.00 -Nz 0.00 -Ne -1.000000 -Nl MAC -Nw --- -Ma 0 -Md ffffffff -Ms 24 -Mt 800 -Is 36.255 -Id -1.255 -It AODV -Il 48 -If 0 -Ii 0 -Iv 30 -P aodv -Pt 0x2 -Ph 1 -Pb 1 -Pd 23 -Pds 0 -Ps 36 -Pss 4 -Pc REQUEST 
r -t 1.001223745 -Hs 16 -Hd -2 -Ni 16 -Nx 386.00 -Ny 295.00 -Nz 0.00 -Ne -1.000000 -Nl MAC -Nw --- -Ma 0 -Md ffffffff -Ms 24 -Mt 800 -Is 36.255 -Id -1.255 -It AODV -Il 48 -If 0 -Ii 0 -Iv 30 -P aodv -Pt 0x2 -Ph 1 -Pb 1 -Pd 23 -Pds 0 -Ps 36 -Pss 4 -Pc REQUEST 
r -t 1.001223745 -Hs 6 -Hd -2 -Ni 6 -Nx 686.00 -Ny 395.00 -Nz 0.00 -Ne -1.000000 -Nl MAC -Nw --- -Ma 0 -Md ffffffff -Ms 24 -Mt 800 -Is 36.255 -Id -1.255 -It AODV -Il 48 -If 0 -Ii 0 -Iv 30 -P aodv -Pt 0x2 -Ph 1 -Pb 1 -Pd 23 -Pds 0 -Ps 36 -Pss 4 -Pc REQUEST 
r -t 1.001223833 -Hs 1 -Hd -2 -Ni 1 -Nx 436.00 -Ny 395.00 -Nz 0.00 -Ne -1.000000 -Nl MAC -Nw --- -Ma 0 -Md ffffffff -Ms 24 -Mt 800 -Is 36.255 -Id -1.255 -It AODV -Il 48 -If 0 -Ii 0 -Iv 30 -P aodv -Pt 0x2 -Ph 1 -Pb 1 -Pd 23 -Pds 0 -Ps 36 -Pss 4 -Pc REQUEST 
r -t 1.001223833 -Hs 8 -Hd -2 -Ni 8 -Nx 386.00 -Ny 345.00 -Nz 0.00 -Ne -1.000000 -Nl MAC -Nw --- -Ma 0 -Md ffffffff -Ms 24 -Mt 800 -Is 36.255 -Id -1.255 -It AODV -Il 48 -If 0 -Ii 0 -Iv 30 -P aodv -Pt 0x2 -Ph 1 -Pb 1 -Pd 23 -Pds 0 -Ps 36 -Pss 4 -Pc REQUEST 
r -t 1.001223833 -Hs 7 -Hd -2 -Ni 7 -Nx 736.00 -Ny 395.00 -Nz 0.00 -Ne -1.000000 -Nl MAC -Nw --- -Ma 0 -Md ffffffff -Ms 24 -Mt 800 -Is 36.255 -Id -1.255 -It AODV -Il 48 -If 0 -Ii 0 -Iv 30 -P aodv -Pt 0x2 -Ph 1 -Pb 1 -Pd 23 -Pds 0 -Ps 36 -Pss 4 -Pc REQUEST 
r -t 1.001248167 -Hs 28 -Hd -2 -Ni 28 -Nx 586.00 -Ny 245.00 -Nz 0.00 -Ne -1.000000 -Nl RTR -Nw --- -Ma 0 -Md ffffffff -Ms 24 -Mt 800 -Is 36.255 -Id -1.255 -It AODV -Il 48 -If 0 -Ii 0 -Iv 30 -P aodv -Pt 0x2 -Ph 1 -Pb 1 -Pd 23 -Pds 0 -Ps 36 -Pss 4 -Pc REQUEST 
r -t 1.001248167 -Hs 35 -Hd -2 -Ni 35 -Nx 536.00 -Ny 195.00 -Nz 0.00 -Ne -1.000000 -Nl RTR -Nw --- -Ma 0 -Md ffffffff -Ms 24 -Mt 800 -Is 36.255 -Id -1.255 -It AODV -Il 48 -If 0 -Ii 0 -Iv 30 -P aodv -Pt 0x2 -Ph 1 -Pb 1 -Pd 23 -Pds 0 -Ps 36 -Pss 4 -Pc REQUEST 
r -t 1.001248167 -Hs 37 -Hd -2 -Ni 37 -Nx 636.00 -Ny 195.00 -Nz 0.00 -Ne -1.000000 -Nl RTR -Nw --- -Ma 0 -Md ffffffff -Ms 24 -Mt 800 -Is 36.255 -Id -1.255 -It AODV -Il 48 -If 0 -Ii 0 -Iv 30 -P aodv -Pt 0x2 -Ph 1 -Pb 1 -Pd 23 -Pds 0 -Ps 36 -Pss 4 -Pc REQUEST 
r -t 1.001248236 -Hs 27 -Hd -2 -Ni 27 -Nx 536.00 -Ny 245.00 -Nz 0.00 -Ne -1.000000 -Nl RTR -Nw --- -Ma 0 -Md ffffffff -Ms 24 -Mt 800 -Is 36.255 -Id -1.255 -It AODV -Il 48 -If 0 -Ii 0 -Iv 30 -P aodv -Pt 0x2 -Ph 1 -Pb 1 -Pd 23 -Pds 0 -Ps 36 -Pss 4 -Pc REQUEST 
r -t 1.001248236 -Hs 29 -Hd -2 -Ni 29 -Nx 636.00 -Ny 245.00 -Nz 0.00 -Ne -1.000000 -Nl RTR -Nw --- -Ma 0 -Md ffffffff -Ms 24 -Mt 800 -Is 36.255 -Id -1.255 -It AODV -Il 48 -If 0 -Ii 0 -Iv 30 -P aodv -Pt 0x2 -Ph 1 -Pb 1 -Pd 23 -Pds 0 -Ps 36 -Pss 4 -Pc REQUEST 
r -t 1.001248333 -Hs 20 -Hd -2 -Ni 20 -Nx 586.00 -Ny 295.00 -Nz 0.00 -Ne -1.000000 -Nl RTR -Nw --- -Ma 0 -Md ffffffff -Ms 24 -Mt 800 -Is 36.255 -Id -1.255 -It AODV -Il 48 -If 0 -Ii 0 -Iv 30 -P aodv -Pt 0x2 -Ph 1 -Pb 1 -Pd 23 -Pds 0 -Ps 36 -Pss 4 -Pc REQUEST 
r -t 1.001248333 -Hs 34 -Hd -2 -Ni 34 -Nx 486.00 -Ny 195.00 -Nz 0.00 -Ne -1.000000 -Nl RTR -Nw --- -Ma 0 -Md ffffffff -Ms 24 -Mt 800 -Is 36.255 -Id -1.255 -It AODV -Il 48 -If 0 -Ii 0 -Iv 30 -P aodv -Pt 0x2 -Ph 1 -Pb 1 -Pd 23 -Pds 0 -Ps 36 -Pss 4 -Pc REQUEST 
r -t 1.001248333 -Hs 38 -Hd -2 -Ni 38 -Nx 686.00 -Ny 195.00 -Nz 0.00 -Ne -1.000000 -Nl RTR -Nw --- -Ma 0 -Md ffffffff -Ms 24 -Mt 800 -Is 36.255 -Id -1.255 -It AODV -Il 48 -If 0 -Ii 0 -Iv 30 -P aodv -Pt 0x2 -Ph 1 -Pb 1 -Pd 23 -Pds 0 -Ps 36 -Pss 4 -Pc REQUEST 
r -t 1.001248373 -Hs 19 -Hd -2 -Ni 19 -Nx 536.00 -Ny 295.00 -Nz 0.00 -Ne -1.000000 -Nl RTR -Nw --- -Ma 0 -Md ffffffff -Ms 24 -Mt 800 -Is 36.255 -Id -1.255 -It AODV -Il 48 -If 0 -Ii 0 -Iv 30 -P aodv -Pt 0x2 -Ph 1 -Pb 1 -Pd 23 -Pds 0 -Ps 36 -Pss 4 -Pc REQUEST 
r -t 1.001248373 -Hs 26 -Hd -2 -Ni 26 -Nx 486.00 -Ny 245.00 -Nz 0.00 -Ne -1.000000 -Nl RTR -Nw --- -Ma 0 -Md ffffffff -Ms 24 -Mt 800 -Is 36.255 -Id -1.255 -It AODV -Il 48 -If 0 -Ii 0 -Iv 30 -P aodv -Pt 0x2 -Ph 1 -Pb 1 -Pd 23 -Pds 0 -Ps 36 -Pss 4 -Pc REQUEST 
r -t 1.001248373 -Hs 21 -Hd -2 -Ni 21 -Nx 636.00 -Ny 295.00 -Nz 0.00 -Ne -1.000000 -Nl RTR -Nw --- -Ma 0 -Md ffffffff -Ms 24 -Mt 800 -Is 36.255 -Id -1.255 -It AODV -Il 48 -If 0 -Ii 0 -Iv 30 -P aodv -Pt 0x2 -Ph 1 -Pb 1 -Pd 23 -Pds 0 -Ps 36 -Pss 4 -Pc REQUEST 
r -t 1.001248373 -Hs 30 -Hd -2 -Ni 30 -Nx 686.00 -Ny 245.00 -Nz 0.00 -Ne -1.000000 -Nl RTR -Nw --- -Ma 0 -Md ffffffff -Ms 24 -Mt 800 -Is 36.255 -Id -1.255 -It AODV -Il 48 -If 0 -Ii 0 -Iv 30 -P aodv -Pt 0x2 -Ph 1 -Pb 1 -Pd 23 -Pds 0 -Ps 36 -Pss 4 -Pc REQUEST 
r -t 1.001248471 -Hs 18 -Hd -2 -Ni 18 -Nx 486.00 -Ny 295.00 -Nz 0.00 -Ne -1.000000 -Nl RTR -Nw --- -Ma 0 -Md ffffffff -Ms 24 -Mt 800 -Is 36.255 -Id -1.255 -It AODV -Il 48 -If 0 -Ii 0 -Iv 30 -P aodv -Pt 0x2 -Ph 1 -Pb 1 -Pd 23 -Pds 0 -Ps 36 -Pss 4 -Pc REQUEST 
r -t 1.001248471 -Hs 22 -Hd -2 -Ni 22 -Nx 686.00 -Ny 295.00 -Nz 0.00 -Ne -1.000000 -Nl RTR -Nw --- -Ma 0 -Md ffffffff -Ms 24 -Mt 800 -Is 36.255 -Id -1.255 -It AODV -Il 48 -If 0 -Ii 0 -Iv 30 -P aodv -Pt 0x2 -Ph 1 -Pb 1 -Pd 23 -Pds 0 -Ps 36 -Pss 4 -Pc REQUEST 
r -t 1.001248500 -Hs 12 -Hd -2 -Ni 12 -Nx 586.00 -Ny 345.00 -Nz 0.00 -Ne -1.000000 -Nl RTR -Nw --- -Ma 0 -Md ffffffff -Ms 24 -Mt 800 -Is 36.255 -Id -1.255 -It AODV -Il 48 -If 0 -Ii 0 -Iv 30 -P aodv -Pt 0x2 -Ph 1 -Pb 1 -Pd 23 -Pds 0 -Ps 36 -Pss 4 -Pc REQUEST 
r -t 1.001248500 -Hs 33 -Hd -2 -Ni 33 -Nx 436.00 -Ny 195.00 -Nz 0.00 -Ne -1.000000 -Nl RTR -Nw --- -Ma 0 -Md ffffffff -Ms 24 -Mt 800 -Is 36.255 -Id -1.255 -It AODV -Il 48 -If 0 -Ii 0 -Iv 30 -P aodv -Pt 0x2 -Ph 1 -Pb 1 -Pd 23 -Pds 0 -Ps 36 -Pss 4 -Pc REQUEST 
r -t 1.001248500 -Hs 39 -Hd -2 -Ni 39 -Nx 736.00 -Ny 195.00 -Nz 0.00 -Ne -1.000000 -Nl RTR -Nw --- -Ma 0 -Md ffffffff -Ms 24 -Mt 800 -Is 36.255 -Id -1.255 -It AODV -Il 48 -If 0 -Ii 0 -Iv 30 -P aodv -Pt 0x2 -Ph 1 -Pb 1 -Pd 23 -Pds 0 -Ps 36 -Pss 4 -Pc REQUEST 
r -t 1.001248527 -Hs 11 -Hd -2 -Ni 11 -Nx 536.00 -Ny 345.00 -Nz 0.00 -Ne -1.000000 -Nl RTR -Nw --- -Ma 0 -Md ffffffff -Ms 24 -Mt 800 -Is 36.255 -Id -1.255 -It AODV -Il 48 -If 0 -Ii 0 -Iv 30 -P aodv -Pt 0x2 -Ph 1 -Pb 1 -Pd 23 -Pds 0 -Ps 36 -Pss 4 -Pc REQUEST 
r -t 1.001248527 -Hs 25 -Hd -2 -Ni 25 -Nx 436.00 -Ny 245.00 -Nz 0.00 -Ne -1.000000 -Nl RTR -Nw --- -Ma 0 -Md ffffffff -Ms 24 -Mt 800 -Is 36.255 -Id -1.255 -It AODV -Il 48 -If 0 -Ii 0 -Iv 30 -P aodv -Pt 0x2 -Ph 1 -Pb 1 -Pd 23 -Pds 0 -Ps 36 -Pss 4 -Pc REQUEST 
r -t 1.001248527 -Hs 13 -Hd -2 -Ni 13 -Nx 636.00 -Ny 345.00 -Nz 0.00 -Ne -1.000000 -Nl RTR -Nw --- -Ma 0 -Md ffffffff -Ms 24 -Mt 800 -Is 36.255 -Id -1.255 -It AODV -Il 48 -If 0 -Ii 0 -Iv 30 -P aodv -Pt 0x2 -Ph 1 -Pb 1 -Pd 23 -Pds 0 -Ps 36 -Pss 4 -Pc REQUEST 
r -t 1.001248527 -Hs 31 -Hd -2 -Ni 31 -Nx 736.00 -Ny 245.00 -Nz 0.00 -Ne -1.000000 -Nl RTR -Nw --- -Ma 0 -Md ffffffff -Ms 24 -Mt 800 -Is 36.255 -Id -1.255 -It AODV -Il 48 -If 0 -Ii 0 -Iv 30 -P aodv -Pt 0x2 -Ph 1 -Pb 1 -Pd 23 -Pds 0 -Ps 36 -Pss 4 -Pc REQUEST 
r -t 1.001248601 -Hs 10 -Hd -2 -Ni 10 -Nx 486.00 -Ny 345.00 -Nz 0.00 -Ne -1.000000 -Nl RTR -Nw --- -Ma 0 -Md ffffffff -Ms 24 -Mt 800 -Is 36.255 -Id -1.255 -It AODV -Il 48 -If 0 -Ii 0 -Iv 30 -P aodv -Pt 0x2 -Ph 1 -Pb 1 -Pd 23 -Pds 0 -Ps 36 -Pss 4 -Pc REQUEST 
r -t 1.001248601 -Hs 17 -Hd -2 -Ni 17 -Nx 436.00 -Ny 295.00 -Nz 0.00 -Ne -1.000000 -Nl RTR -Nw --- -Ma 0 -Md ffffffff -Ms 24 -Mt 800 -Is 36.255 -Id -1.255 -It AODV -Il 48 -If 0 -Ii 0 -Iv 30 -P aodv -Pt 0x2 -Ph 1 -Pb 1 -Pd 23 -Pds 0 -Ps 36 -Pss 4 -Pc REQUEST 
r -t 1.001248601 -Hs 14 -Hd -2 -Ni 14 -Nx 686.00 -Ny 345.00 -Nz 0.00 -Ne -1.000000 -Nl RTR -Nw --- -Ma 0 -Md ffffffff -Ms 24 -Mt 800 -Is 36.255 -Id -1.255 -It AODV -Il 48 -If 0 -Ii 0 -Iv 30 -P aodv -Pt 0x2 -Ph 1 -Pb 1 -Pd 23 -Pds 0 -Ps 36 -Pss 4 -Pc REQUEST 
r -t 1.001248601 -Hs 23 -Hd -2 -Ni 23 -Nx 736.00 -Ny 295.00 -Nz 0.00 -Ne -1.000000 -Nl RTR -Nw --- -Ma 0 -Md ffffffff -Ms 24 -Mt 800 -Is 36.255 -Id -1.255 -It AODV -Il 48 -If 0 -Ii 0 -Iv 30 -P aodv -Pt 0x2 -Ph 1 -Pb 1 -Pd 23 -Pds 0 -Ps 36 -Pss 4 -Pc REQUEST 
s -t 1.001248601 -Hs 23 -Hd 36 -Ni 23 -Nx 736.00 -Ny 295.00 -Nz 0.00 -Ne -1.000000 -Nl RTR -Nw --- -Ma 0 -Md 0 -Ms 0 -Mt 0 -Is 23.255 -Id 36.255 -It AODV -Il 44 -If 0 -Ii 0 -Iv 30 -P aodv -Pt 0x4 -Ph 1 -Pd 23 -Pds 4 -Pl 10.000000 -Pc REPLY 
r -t 1.001248667 -Hs 4 -Hd -2 -Ni 4 -Nx 586.00 -Ny 395.00 -Nz 0.00 -Ne -1.000000 -Nl RTR -Nw --- -Ma 0 -Md ffffffff -Ms 24 -Mt 800 -Is 36.255 -Id -1.255 -It AODV -Il 48 -If 0 -Ii 0 -Iv 30 -P aodv -Pt 0x2 -Ph 1 -Pb 1 -Pd 23 -Pds 0 -Ps 36 -Pss 4 -Pc REQUEST 
r -t 1.001248667 -Hs 32 -Hd -2 -Ni 32 -Nx 386.00 -Ny 195.00 -Nz 0.00 -Ne -1.000000 -Nl RTR -Nw --- -Ma 0 -Md ffffffff -Ms 24 -Mt 800 -Is 36.255 -Id -1.255 -It AODV -Il 48 -If 0 -Ii 0 -Iv 30 -P aodv -Pt 0x2 -Ph 1 -Pb 1 -Pd 23 -Pds 0 -Ps 36 -Pss 4 -Pc REQUEST 
r -t 1.001248687 -Hs 3 -Hd -2 -Ni 3 -Nx 536.00 -Ny 395.00 -Nz 0.00 -Ne -1.000000 -Nl RTR -Nw --- -Ma 0 -Md ffffffff -Ms 24 -Mt 800 -Is 36.255 -Id -1.255 -It AODV -Il 48 -If 0 -Ii 0 -Iv 30 -P aodv -Pt 0x2 -Ph 1 -Pb 1 -Pd 23 -Pds 0 -Ps 36 -Pss 4 -Pc REQUEST 
r -t 1.001248687 -Hs 24 -Hd -2 -Ni 24 -Nx 386.00 -Ny 245.00 -Nz 0.00 -Ne -1.000000 -Nl RTR -Nw --- -Ma 0 -Md ffffffff -Ms 24 -Mt 800 -Is 36.255 -Id -1.255 -It AODV -Il 48 -If 0 -Ii 0 -Iv 30 -P aodv -Pt 0x2 -Ph 1 -Pb 1 -Pd 23 -Pds 0 -Ps 36 -Pss 4 -Pc REQUEST 
r -t 1.001248687 -Hs 5 -Hd -2 -Ni 5 -Nx 636.00 -Ny 395.00 -Nz 0.00 -Ne -1.000000 -Nl RTR -Nw --- -Ma 0 -Md ffffffff -Ms 24 -Mt 800 -Is 36.255 -Id -1.255 -It AODV -Il 48 -If 0 -Ii 0 -Iv 30 -P aodv -Pt 0x2 -Ph 1 -Pb 1 -Pd 23 -Pds 0 -Ps 36 -Pss 4 -Pc REQUEST 
r -t 1.001248707 -Hs 9 -Hd -2 -Ni 9 -Nx 436.00 -Ny 345.00 -Nz 0.00 -Ne -1.000000 -Nl RTR -Nw --- -Ma 0 -Md ffffffff -Ms 24 -Mt 800 -Is 36.255 -Id -1.255 -It AODV -Il 48 -If 0 -Ii 0 -Iv 30 -P aodv -Pt 0x2 -Ph 1 -Pb 1 -Pd 23 -Pds 0 -Ps 36 -Pss 4 -Pc REQUEST 
r -t 1.001248707 -Hs 15 -Hd -2 -Ni 15 -Nx 736.00 -Ny 345.00 -Nz 0.00 -Ne -1.000000 -Nl RTR -Nw --- -Ma 0 -Md ffffffff -Ms 24 -Mt 800 -Is 36.255 -Id -1.255 -It AODV -Il 48 -If 0 -Ii 0 -Iv 30 -P aodv -Pt 0x2 -Ph 1 -Pb 1 -Pd 23 -Pds 0 -Ps 36 -Pss 4 -Pc REQUEST 
r -t 1.001248745 -Hs 2 -Hd -2 -Ni 2 -Nx 486.00 -Ny 395.00 -Nz 0.00 -Ne -1.000000 -Nl RTR -Nw --- -Ma 0 -Md ffffffff -Ms 24 -Mt 800 -Is 36.255 -Id -1.255 -It AODV -Il 48 -If 0 -Ii 0 -Iv 30 -P aodv -Pt 0x2 -Ph 1 -Pb 1 -Pd 23 -Pds 0 -Ps 36 -Pss 4 -Pc REQUEST 
r -t 1.001248745 -Hs 16 -Hd -2 -Ni 16 -Nx 386.00 -Ny 295.00 -Nz 0.00 -Ne -1.000000 -Nl RTR -Nw --- -Ma 0 -Md ffffffff -Ms 24 -Mt 800 -Is 36.255 -Id -1.255 -It AODV -Il 48 -If 0 -Ii 0 -Iv 30 -P aodv -Pt 0x2 -Ph 1 -Pb 1 -Pd 23 -Pds 0 -Ps 36 -Pss 4 -Pc REQUEST 
r -t 1.001248745 -Hs 6 -Hd -2 -Ni 6 -Nx 686.00 -Ny 395.00 -Nz 0.00 -Ne -1.000000 -Nl RTR -Nw --- -Ma 0 -Md ffffffff -Ms 24 -Mt 800 -Is 36.255 -Id -1.255 -It AODV -Il 48 -If 0 -Ii 0 -Iv 30 -P aodv -Pt 0x2 -Ph 1 -Pb 1 -Pd 23 -Pds 0 -Ps 36 -Pss 4 -Pc REQUEST 
r -t 1.001248833 -Hs 1 -Hd -2 -Ni 1 -Nx 436.00 -Ny 395.00 -Nz 0.00 -Ne -1.000000 -Nl RTR -Nw --- -Ma 0 -Md ffffffff -Ms 24 -Mt 800 -Is 36.255 -Id -1.255 -It AODV -Il 48 -If 0 -Ii 0 -Iv 30 -P aodv -Pt 0x2 -Ph 1 -Pb 1 -Pd 23 -Pds 0 -Ps 36 -Pss 4 -Pc REQUEST 
r -t 1.001248833 -Hs 8 -Hd -2 -Ni 8 -Nx 386.00 -Ny 345.00 -Nz 0.00 -Ne -1.000000 -Nl RTR -Nw --- -Ma 0 -Md ffffffff -Ms 24 -Mt 800 -Is 36.255 -Id -1.255 -It AODV -Il 48 -If 0 -Ii 0 -Iv 30 -P aodv -Pt 0x2 -Ph 1 -Pb 1 -Pd 23 -Pds 0 -Ps 36 -Pss 4 -Pc REQUEST 
r -t 1.001248833 -Hs 7 -Hd -2 -Ni 7 -Nx 736.00 -Ny 395.00 -Nz 0.00 -Ne -1.000000 -Nl RTR -Nw --- -Ma 0 -Md ffffffff -Ms 24 -Mt 800 -Is 36.255 -Id -1.255 -It AODV -Il 48 -If 0 -Ii 0 -Iv 30 -P aodv -Pt 0x2 -Ph 1 -Pb 1 -Pd 23 -Pds 0 -Ps 36 -Pss 4 -Pc REQUEST 
s -t 1.001533687 -Hs 3 -Hd -2 -Ni 3 -Nx 536.00 -Ny 395.00 -Nz 0.00 -Ne -1.000000 -Nl MAC -Nw --- -Ma 0 -Md ffffffff -Ms 3 -Mt 800 -Is 3.255 -Id -1.255 -It AODV -Il 106 -If 0 -Ii 0 -Iv 30 -P aodv -Pt 0x2 -Ph 1 -Pb 1 -Pd 16 -Pds 0 -Ps 3 -Pss 4 -Pc REQUEST 
s -t 1.001676318 -Hs 19 -Hd -2 -Ni 19 -Nx 536.00 -Ny 295.00 -Nz 0.00 -Ne -1.000000 -Nl RTR -Nw --- -Ma 0 -Md ffffffff -Ms 24 -Mt 800 -Is 19.255 -Id -1.255 -It AODV -Il 48 -If 0 -Ii 0 -Iv 29 -P aodv -Pt 0x2 -Ph 2 -Pb 1 -Pd 23 -Pds 0 -Ps 36 -Pss 4 -Pc REQUEST 
s -t 1.002189889 -Hs 12 -Hd -2 -Ni 12 -Nx 586.00 -Ny 345.00 -Nz 0.00 -Ne -1.000000 -Nl RTR -Nw --- -Ma 0 -Md ffffffff -Ms 24 -Mt 800 -Is 12.255 -Id -1.255 -It AODV -Il 48 -If 0 -Ii 0 -Iv 29 -P aodv -Pt 0x2 -Ph 2 -Pb 1 -Pd 23 -Pds 0 -Ps 36 -Pss 4 -Pc REQUEST 
s -t 1.002340730 -Hs 2 -Hd -2 -Ni 2 -Nx 486.00 -Ny 395.00 -Nz 0.00 -Ne -1.000000 -Nl RTR -Nw --- -Ma 0 -Md ffffffff -Ms 24 -Mt 800 -Is 2.255 -Id -1.255 -It AODV -Il 48 -If 0 -Ii 0 -Iv 29 -P aodv -Pt 0x2 -Ph 2 -Pb 1 -Pd 23 -Pds 0 -Ps 36 -Pss 4 -Pc REQUEST 
r -t 1.002381854 -Hs 2 -Hd -2 -Ni 2 -Nx 486.00 -Ny 395.00 -Nz 0.00 -Ne -1.000000 -Nl MAC -Nw --- -Ma 0 -Md ffffffff -Ms 3 -Mt 800 -Is 3.255 -Id -1.255 -It AODV -Il 48 -If 0 -Ii 0 -Iv 30 -P aodv -Pt 0x2 -Ph 1 -Pb 1 -Pd 16 -Pds 0 -Ps 3 -Pss 4 -Pc REQUEST 
r -t 1.002381854 -Hs 11 -Hd -2 -Ni 11 -Nx 536.00 -Ny 345.00 -Nz 0.00 -Ne -1.000000 -Nl MAC -Nw --- -Ma 0 -Md ffffffff -Ms 3 -Mt 800 -Is 3.255 -Id -1.255 -It AODV -Il 48 -If 0 -Ii 0 -Iv 30 -P aodv -Pt 0x2 -Ph 1 -Pb 1 -Pd 16 -Pds 0 -Ps 3 -Pss 4 -Pc REQUEST 
r -t 1.002381854 -Hs 4 -Hd -2 -Ni 4 -Nx 586.00 -Ny 395.00 -Nz 0.00 -Ne -1.000000 -Nl MAC -Nw --- -Ma 0 -Md ffffffff -Ms 3 -Mt 800 -Is 3.255 -Id -1.255 -It AODV -Il 48 -If 0 -Ii 0 -Iv 30 -P aodv -Pt 0x2 -Ph 1 -Pb 1 -Pd 16 -Pds 0 -Ps 3 -Pss 4 -Pc REQUEST 
r -t 1.002381923 -Hs 10 -Hd -2 -Ni 10 -Nx 486.00 -Ny 345.00 -Nz 0.00 -Ne -1.000000 -Nl MAC -Nw --- -Ma 0 -Md ffffffff -Ms 3 -Mt 800 -Is 3.255 -Id -1.255 -It AODV -Il 48 -If 0 -Ii 0 -Iv 30 -P aodv -Pt 0x2 -Ph 1 -Pb 1 -Pd 16 -Pds 0 -Ps 3 -Pss 4 -Pc REQUEST 
r -t 1.002381923 -Hs 12 -Hd -2 -Ni 12 -Nx 586.00 -Ny 345.00 -Nz 0.00 -Ne -1.000000 -Nl MAC -Nw --- -Ma 0 -Md ffffffff -Ms 3 -Mt 800 -Is 3.255 -Id -1.255 -It AODV -Il 48 -If 0 -Ii 0 -Iv 30 -P aodv -Pt 0x2 -Ph 1 -Pb 1 -Pd 16 -Pds 0 -Ps 3 -Pss 4 -Pc REQUEST 
r -t 1.002382021 -Hs 1 -Hd -2 -Ni 1 -Nx 436.00 -Ny 395.00 -Nz 0.00 -Ne -1.000000 -Nl MAC -Nw --- -Ma 0 -Md ffffffff -Ms 3 -Mt 800 -Is 3.255 -Id -1.255 -It AODV -Il 48 -If 0 -Ii 0 -Iv 30 -P aodv -Pt 0x2 -Ph 1 -Pb 1 -Pd 16 -Pds 0 -Ps 3 -Pss 4 -Pc REQUEST 
r -t 1.002382021 -Hs 19 -Hd -2 -Ni 19 -Nx 536.00 -Ny 295.00 -Nz 0.00 -Ne -1.000000 -Nl MAC -Nw --- -Ma 0 -Md ffffffff -Ms 3 -Mt 800 -Is 3.255 -Id -1.255 -It AODV -Il 48 -If 0 -Ii 0 -Iv 30 -P aodv -Pt 0x2 -Ph 1 -Pb 1 -Pd 16 -Pds 0 -Ps 3 -Pss 4 -Pc REQUEST 
r -t 1.002382021 -Hs 5 -Hd -2 -Ni 5 -Nx 636.00 -Ny 395.00 -Nz 0.00 -Ne -1.000000 -Nl MAC -Nw --- -Ma 0 -Md ffffffff -Ms 3 -Mt 800 -Is 3.255 -Id -1.255 -It AODV -Il 48 -If 0 -Ii 0 -Iv 30 -P aodv -Pt 0x2 -Ph 1 -Pb 1 -Pd 16 -Pds 0 -Ps 3 -Pss 4 -Pc REQUEST 
r -t 1.002382060 -Hs 18 -Hd -2 -Ni 18 -Nx 486.00 -Ny 295.00 -Nz 0.00 -Ne -1.000000 -Nl MAC -Nw --- -Ma 0 -Md ffffffff -Ms 3 -Mt 800 -Is 3.255 -Id -1.255 -It AODV -Il 48 -If 0 -Ii 0 -Iv 30 -P aodv -Pt 0x2 -Ph 1 -Pb 1 -Pd 16 -Pds 0 -Ps 3 -Pss 4 -Pc REQUEST 
r -t 1.002382060 -Hs 9 -Hd -2 -Ni 9 -Nx 436.00 -Ny 345.00 -Nz 0.00 -Ne -1.000000 -Nl MAC -Nw --- -Ma 0 -Md ffffffff -Ms 3 -Mt 800 -Is 3.255 -Id -1.255 -It AODV -Il 48 -If 0 -Ii 0 -Iv 30 -P aodv -Pt 0x2 -Ph 1 -Pb 1 -Pd 16 -Pds 0 -Ps 3 -Pss 4 -Pc REQUEST 
r -t 1.002382060 -Hs 20 -Hd -2 -Ni 20 -Nx 586.00 -Ny 295.00 -Nz 0.00 -Ne -1.000000 -Nl MAC -Nw --- -Ma 0 -Md ffffffff -Ms 3 -Mt 800 -Is 3.255 -Id -1.255 -It AODV -Il 48 -If 0 -Ii 0 -Iv 30 -P aodv -Pt 0x2 -Ph 1 -Pb 1 -Pd 16 -Pds 0 -Ps 3 -Pss 4 -Pc REQUEST 
r -t 1.002382060 -Hs 13 -Hd -2 -Ni 13 -Nx 636.00 -Ny 345.00 -Nz 0.00 -Ne -1.000000 -Nl MAC -Nw --- -Ma 0 -Md ffffffff -Ms 3 -Mt 800 -Is 3.255 -Id -1.255 -It AODV -Il 48 -If 0 -Ii 0 -Iv 30 -P aodv -Pt 0x2 -Ph 1 -Pb 1 -Pd 16 -Pds 0 -Ps 3 -Pss 4 -Pc REQUEST 
r -t 1.002382159 -Hs 17 -Hd -2 -Ni 17 -Nx 436.00 -Ny 295.00 -Nz 0.00 -Ne -1.000000 -Nl MAC -Nw --- -Ma 0 -Md ffffffff -Ms 3 -Mt 800 -Is 3.255 -Id -1.255 -It AODV -Il 48 -If 0 -Ii 0 -Iv 30 -P aodv -Pt 0x2 -Ph 1 -Pb 1 -Pd 16 -Pds 0 -Ps 3 -Pss 4 -Pc REQUEST 
r -t 1.002382159 -Hs 21 -Hd -2 -Ni 21 -Nx 636.00 -Ny 295.00 -Nz 0.00 -Ne -1.000000 -Nl MAC -Nw --- -Ma 0 -Md ffffffff -Ms 3 -Mt 800 -Is 3.255 -Id -1.255 -It AODV -Il 48 -If 0 -Ii 0 -Iv 30 -P aodv -Pt 0x2 -Ph 1 -Pb 1 -Pd 16 -Pds 0 -Ps 3 -Pss 4 -Pc REQUEST 
r -t 1.002382187 -Hs 0 -Hd -2 -Ni 0 -Nx 386.00 -Ny 395.00 -Nz 0.00 -Ne -1.000000 -Nl MAC -Nw --- -Ma 0 -Md ffffffff -Ms 3 -Mt 800 -Is 3.255 -Id -1.255 -It AODV -Il 48 -If 0 -Ii 0 -Iv 30 -P aodv -Pt 0x2 -Ph 1 -Pb 1 -Pd 16 -Pds 0 -Ps 3 -Pss 4 -Pc REQUEST 
r -t 1.002382187 -Hs 27 -Hd -2 -Ni 27 -Nx 536.00 -Ny 245.00 -Nz 0.00 -Ne -1.000000 -Nl MAC -Nw --- -Ma 0 -Md ffffffff -Ms 3 -Mt 800 -Is 3.255 -Id -1.255 -It AODV -Il 48 -If 0 -Ii 0 -Iv 30 -P aodv -Pt 0x2 -Ph 1 -Pb 1 -Pd 16 -Pds 0 -Ps 3 -Pss 4 -Pc REQUEST 
r -t 1.002382187 -Hs 6 -Hd -2 -Ni 6 -Nx 686.00 -Ny 395.00 -Nz 0.00 -Ne -1.000000 -Nl MAC -Nw --- -Ma 0 -Md ffffffff -Ms 3 -Mt 800 -Is 3.255 -Id -1.255 -It AODV -Il 48 -If 0 -Ii 0 -Iv 30 -P aodv -Pt 0x2 -Ph 1 -Pb 1 -Pd 16 -Pds 0 -Ps 3 -Pss 4 -Pc REQUEST 
r -t 1.002382214 -Hs 26 -Hd -2 -Ni 26 -Nx 486.00 -Ny 245.00 -Nz 0.00 -Ne -1.000000 -Nl MAC -Nw --- -Ma 0 -Md ffffffff -Ms 3 -Mt 800 -Is 3.255 -Id -1.255 -It AODV -Il 48 -If 0 -Ii 0 -Iv 30 -P aodv -Pt 0x2 -Ph 1 -Pb 1 -Pd 16 -Pds 0 -Ps 3 -Pss 4 -Pc REQUEST 
r -t 1.002382214 -Hs 8 -Hd -2 -Ni 8 -Nx 386.00 -Ny 345.00 -Nz 0.00 -Ne -1.000000 -Nl MAC -Nw --- -Ma 0 -Md ffffffff -Ms 3 -Mt 800 -Is 3.255 -Id -1.255 -It AODV -Il 48 -If 0 -Ii 0 -Iv 30 -P aodv -Pt 0x2 -Ph 1 -Pb 1 -Pd 16 -Pds 0 -Ps 3 -Pss 4 -Pc REQUEST 
r -t 1.002382214 -Hs 28 -Hd -2 -Ni 28 -Nx 586.00 -Ny 245.00 -Nz 0.00 -Ne -1.000000 -Nl MAC -Nw --- -Ma 0 -Md ffffffff -Ms 3 -Mt 800 -Is 3.255 -Id -1.255 -It AODV -Il 48 -If 0 -Ii 0 -Iv 30 -P aodv -Pt 0x2 -Ph 1 -Pb 1 -Pd 16 -Pds 0 -Ps 3 -Pss 4 -Pc REQUEST 
r -t 1.002382214 -Hs 14 -Hd -2 -Ni 14 -Nx 686.00 -Ny 345.00 -Nz 0.00 -Ne -1.000000 -Nl MAC -Nw --- -Ma 0 -Md ffffffff -Ms 3 -Mt 800 -Is 3.255 -Id -1.255 -It AODV -Il 48 -If 0 -Ii 0 -Iv 30 -P aodv -Pt 0x2 -Ph 1 -Pb 1 -Pd 16 -Pds 0 -Ps 3 -Pss 4 -Pc REQUEST 
r -t 1.002382288 -Hs 25 -Hd -2 -Ni 25 -Nx 436.00 -Ny 245.00 -Nz 0.00 -Ne -1.000000 -Nl MAC -Nw --- -Ma 0 -Md ffffffff -Ms 3 -Mt 800 -Is 3.255 -Id -1.255 -It AODV -Il 48 -If 0 -Ii 0 -Iv 30 -P aodv -Pt 0x2 -Ph 1 -Pb 1 -Pd 16 -Pds 0 -Ps 3 -Pss 4 -Pc REQUEST 
r -t 1.002382288 -Hs 16 -Hd -2 -Ni 16 -Nx 386.00 -Ny 295.00 -Nz 0.00 -Ne -1.000000 -Nl MAC -Nw --- -Ma 0 -Md ffffffff -Ms 3 -Mt 800 -Is 3.255 -Id -1.255 -It AODV -Il 48 -If 0 -Ii 0 -Iv 30 -P aodv -Pt 0x2 -Ph 1 -Pb 1 -Pd 16 -Pds 0 -Ps 3 -Pss 4 -Pc REQUEST 
r -t 1.002382288 -Hs 29 -Hd -2 -Ni 29 -Nx 636.00 -Ny 245.00 -Nz 0.00 -Ne -1.000000 -Nl MAC -Nw --- -Ma 0 -Md ffffffff -Ms 3 -Mt 800 -Is 3.255 -Id -1.255 -It AODV -Il 48 -If 0 -Ii 0 -Iv 30 -P aodv -Pt 0x2 -Ph 1 -Pb 1 -Pd 16 -Pds 0 -Ps 3 -Pss 4 -Pc REQUEST 
r -t 1.002382288 -Hs 22 -Hd -2 -Ni 22 -Nx 686.00 -Ny 295.00 -Nz 0.00 -Ne -1.000000 -Nl MAC -Nw --- -Ma 0 -Md ffffffff -Ms 3 -Mt 800 -Is 3.255 -Id -1.255 -It AODV -Il 48 -If 0 -Ii 0 -Iv 30 -P aodv -Pt 0x2 -Ph 1 -Pb 1 -Pd 16 -Pds 0 -Ps 3 -Pss 4 -Pc REQUEST 
r -t 1.002382354 -Hs 35 -Hd -2 -Ni 35 -Nx 536.00 -Ny 195.00 -Nz 0.00 -Ne -1.000000 -Nl MAC -Nw --- -Ma 0 -Md ffffffff -Ms 3 -Mt 800 -Is 3.255 -Id -1.255 -It AODV -Il 48 -If 0 -Ii 0 -Iv 30 -P aodv -Pt 0x2 -Ph 1 -Pb 1 -Pd 16 -Pds 0 -Ps 3 -Pss 4 -Pc REQUEST 
r -t 1.002382354 -Hs 7 -Hd -2 -Ni 7 -Nx 736.00 -Ny 395.00 -Nz 0.00 -Ne -1.000000 -Nl MAC -Nw --- -Ma 0 -Md ffffffff -Ms 3 -Mt 800 -Is 3.255 -Id -1.255 -It AODV -Il 48 -If 0 -Ii 0 -Iv 30 -P aodv -Pt 0x2 -Ph 1 -Pb 1 -Pd 16 -Pds 0 -Ps 3 -Pss 4 -Pc REQUEST 
r -t 1.002382374 -Hs 34 -Hd -2 -Ni 34 -Nx 486.00 -Ny 195.00 -Nz 0.00 -Ne -1.000000 -Nl MAC -Nw --- -Ma 0 -Md ffffffff -Ms 3 -Mt 800 -Is 3.255 -Id -1.255 -It AODV -Il 48 -If 0 -Ii 0 -Iv 30 -P aodv -Pt 0x2 -Ph 1 -Pb 1 -Pd 16 -Pds 0 -Ps 3 -Pss 4 -Pc REQUEST 
r -t 1.002382374 -Hs 36 -Hd -2 -Ni 36 -Nx 586.00 -Ny 195.00 -Nz 0.00 -Ne -1.000000 -Nl MAC -Nw --- -Ma 0 -Md ffffffff -Ms 3 -Mt 800 -Is 3.255 -Id -1.255 -It AODV -Il 48 -If 0 -Ii 0 -Iv 30 -P aodv -Pt 0x2 -Ph 1 -Pb 1 -Pd 16 -Pds 0 -Ps 3 -Pss 4 -Pc REQUEST 