s -t 0.005404169 -Hs 14 -Hd -1 -Ni 14 -Nx 492.00 -Ny 321.00 -Nz 0.00 -Ne -1.000000 -Nl RTR -Nw --- -Ma 0 -Md 0 -Ms 0 -Mt 0 -Is 14.255 -Id -1.255 -It undefined -Il 48 -If 0 -Ii 0 -Iv 32 -P olsr -Pn 1 -Ps 0 [-Pt HELLO -Po 14 -Ph 0 -Pms 0] 
s -t 0.005659169 -Hs 14 -Hd -1 -Ni 14 -Nx 492.00 -Ny 321.00 -Nz 0.00 -Ne -1.000000 -Nl MAC -Nw --- -Ma 0 -Md ffffffff -Ms e -Mt 800 -Is 14.255 -Id -1.255 -It undefined -Il 106 -If 0 -Ii 0 -Iv 32 -P olsr -Pn 1 -Ps 0 [-Pt HELLO -Po 14 -Ph 0 -Pms 0] 
r -t 0.006507336 -Hs 8 -Hd -1 -Ni 8 -Nx 492.00 -Ny 371.00 -Nz 0.00 -Ne -1.000000 -Nl MAC -Nw --- -Ma 0 -Md ffffffff -Ms e -Mt 800 -Is 14.255 -Id -1.255 -It undefined -Il 48 -If 0 -Ii 0 -Iv 32 -P olsr -Pn 1 -Ps 0 [-Pt HELLO -Po 14 -Ph 0 -Pms 0] 
r -t 0.006507336 -Hs 13 -Hd -1 -Ni 13 -Nx 442.00 -Ny 321.00 -Nz 0.00 -Ne -1.000000 -Nl MAC -Nw --- -Ma 0 -Md ffffffff -Ms e -Mt 800 -Is 14.255 -Id -1.255 -It undefined -Il 48 -If 0 -Ii 0 -Iv 32 -P olsr -Pn 1 -Ps 0 [-Pt HELLO -Po 14 -Ph 0 -Pms 0] 
r -t 0.006507336 -Hs 20 -Hd -1 -Ni 20 -Nx 492.00 -Ny 271.00 -Nz 0.00 -Ne -1.000000 -Nl MAC -Nw --- -Ma 0 -Md ffffffff -Ms e -Mt 800 -Is 14.255 -Id -1.255 -It undefined -Il 48 -If 0 -Ii 0 -Iv 32 -P olsr -Pn 1 -Ps 0 [-Pt HELLO -Po 14 -Ph 0 -Pms 0] 
r -t 0.006507336 -Hs 15 -Hd -1 -Ni 15 -Nx 542.00 -Ny 321.00 -Nz 0.00 -Ne -1.000000 -Nl MAC -Nw --- -Ma 0 -Md ffffffff -Ms e -Mt 800 -Is 14.255 -Id -1.255 -It undefined -Il 48 -If 0 -Ii 0 -Iv 32 -P olsr -Pn 1 -Ps 0 [-Pt HELLO -Po 14 -Ph 0 -Pms 0] 
r -t 0.006507405 -Hs 19 -Hd -1 -Ni 19 -Nx 442.00 -Ny 271.00 -Nz 0.00 -Ne -1.000000 -Nl MAC -Nw --- -Ma 0 -Md ffffffff -Ms e -Mt 800 -Is 14.255 -Id -1.255 -It undefined -Il 48 -If 0 -Ii 0 -Iv 32 -P olsr -Pn 1 -Ps 0 [-Pt HELLO -Po 14 -Ph 0 -Pms 0] 
r -t 0.006507405 -Hs 7 -Hd -1 -Ni 7 -Nx 442.00 -Ny 371.00 -Nz 0.00 -Ne -1.000000 -Nl MAC -Nw --- -Ma 0 -Md ffffffff -Ms e -Mt 800 -Is 14.255 -Id -1.255 -It undefined -Il 48 -If 0 -Ii 0 -Iv 32 -P olsr -Pn 1 -Ps 0 [-Pt HELLO -Po 14 -Ph 0 -Pms 0] 
r -t 0.006507405 -Hs 9 -Hd -1 -Ni 9 -Nx 542.00 -Ny 371.00 -Nz 0.00 -Ne -1.000000 -Nl MAC -Nw --- -Ma 0 -Md ffffffff -Ms e -Mt 800 -Is 14.255 -Id -1.255 -It undefined -Il 48 -If 0 -Ii 0 -Iv 32 -P olsr -Pn 1 -Ps 0 [-Pt HELLO -Po 14 -Ph 0 -Pms 0] 
r -t 0.006507405 -Hs 21 -Hd -1 -Ni 21 -Nx 542.00 -Ny 271.00 -Nz 0.00 -Ne -1.000000 -Nl MAC -Nw --- -Ma 0 -Md ffffffff -Ms e -Mt 800 -Is 14.255 -Id -1.255 -It undefined -Il 48 -If 0 -Ii 0 -Iv 32 -P olsr -Pn 1 -Ps 0 [-Pt HELLO -Po 14 -Ph 0 -Pms 0] 
r -t 0.006507502 -Hs 2 -Hd -1 -Ni 2 -Nx 492.00 -Ny 421.00 -Nz 0.00 -Ne -1.000000 -Nl MAC -Nw --- -Ma 0 -Md ffffffff -Ms e -Mt 800 -Is 14.255 -Id -1.255 -It undefined -Il 48 -If 0 -Ii 0 -Iv 32 -P olsr -Pn 1 -Ps 0 [-Pt HELLO -Po 14 -Ph 0 -Pms 0] 
r -t 0.006507502 -Hs 12 -Hd -1 -Ni 12 -Nx 392.00 -Ny 321.00 -Nz 0.00 -Ne -1.000000 -Nl MAC -Nw --- -Ma 0 -Md ffffffff -Ms e -Mt 800 -Is 14.255 -Id -1.255 -It undefined -Il 48 -If 0 -Ii 0 -Iv 32 -P olsr -Pn 1 -Ps 0 [-Pt HELLO -Po 14 -Ph 0 -Pms 0] 
r -t 0.006507502 -Hs 26 -Hd -1 -Ni 26 -Nx 492.00 -Ny 221.00 -Nz 0.00 -Ne -1.000000 -Nl MAC -Nw --- -Ma 0 -Md ffffffff -Ms e -Mt 800 -Is 14.255 -Id -1.255 -It undefined -Il 48 -If 0 -Ii 0 -Iv 32 -P olsr -Pn 1 -Ps 0 [-Pt HELLO -Po 14 -Ph 0 -Pms 0] 
r -t 0.006507502 -Hs 16 -Hd -1 -Ni 16 -Nx 592.00 -Ny 321.00 -Nz 0.00 -Ne -1.000000 -Nl MAC -Nw --- -Ma 0 -Md ffffffff -Ms e -Mt 800 -Is 14.255 -Id -1.255 -It undefined -Il 48 -If 0 -Ii 0 -Iv 32 -P olsr -Pn 1 -Ps 0 [-Pt HELLO -Po 14 -Ph 0 -Pms 0] 
r -t 0.006507542 -Hs 25 -Hd -1 -Ni 25 -Nx 442.00 -Ny 221.00 -Nz 0.00 -Ne -1.000000 -Nl MAC -Nw --- -Ma 0 -Md ffffffff -Ms e -Mt 800 -Is 14.255 -Id -1.255 -It undefined -Il 48 -If 0 -Ii 0 -Iv 32 -P olsr -Pn 1 -Ps 0 [-Pt HELLO -Po 14 -Ph 0 -Pms 0] 
r -t 0.006507542 -Hs 1 -Hd -1 -Ni 1 -Nx 442.00 -Ny 421.00 -Nz 0.00 -Ne -1.000000 -Nl MAC -Nw --- -Ma 0 -Md ffffffff -Ms e -Mt 800 -Is 14.255 -Id -1.255 -It undefined -Il 48 -If 0 -Ii 0 -Iv 32 -P olsr -Pn 1 -Ps 0 [-Pt HELLO -Po 14 -Ph 0 -Pms 0] 
r -t 0.006507542 -Hs 18 -Hd -1 -Ni 18 -Nx 392.00 -Ny 271.00 -Nz 0.00 -Ne -1.000000 -Nl MAC -Nw --- -Ma 0 -Md ffffffff -Ms e -Mt 800 -Is 14.255 -Id -1.255 -It undefined -Il 48 -If 0 -Ii 0 -Iv 32 -P olsr -Pn 1 -Ps 0 [-Pt HELLO -Po 14 -Ph 0 -Pms 0] 
r -t 0.006507542 -Hs 6 -Hd -1 -Ni 6 -Nx 392.00 -Ny 371.00 -Nz 0.00 -Ne -1.000000 -Nl MAC -Nw --- -Ma 0 -Md ffffffff -Ms e -Mt 800 -Is 14.255 -Id -1.255 -It undefined -Il 48 -If 0 -Ii 0 -Iv 32 -P olsr -Pn 1 -Ps 0 [-Pt HELLO -Po 14 -Ph 0 -Pms 0] 
r -t 0.006507542 -Hs 3 -Hd -1 -Ni 3 -Nx 542.00 -Ny 421.00 -Nz 0.00 -Ne -1.000000 -Nl MAC -Nw --- -Ma 0 -Md ffffffff -Ms e -Mt 800 -Is 14.255 -Id -1.255 -It undefined -Il 48 -If 0 -Ii 0 -Iv 32 -P olsr -Pn 1 -Ps 0 [-Pt HELLO -Po 14 -Ph 0 -Pms 0] 
r -t 0.006507542 -Hs 27 -Hd -1 -Ni 27 -Nx 542.00 -Ny 221.00 -Nz 0.00 -Ne -1.000000 -Nl MAC -Nw --- -Ma 0 -Md ffffffff -Ms e -Mt 800 -Is 14.255 -Id -1.255 -It undefined -Il 48 -If 0 -Ii 0 -Iv 32 -P olsr -Pn 1 -Ps 0 [-Pt HELLO -Po 14 -Ph 0 -Pms 0] 
r -t 0.006507542 -Hs 10 -Hd -1 -Ni 10 -Nx 592.00 -Ny 371.00 -Nz 0.00 -Ne -1.000000 -Nl MAC -Nw --- -Ma 0 -Md ffffffff -Ms e -Mt 800 -Is 14.255 -Id -1.255 -It undefined -Il 48 -If 0 -Ii 0 -Iv 32 -P olsr -Pn 1 -Ps 0 [-Pt HELLO -Po 14 -Ph 0 -Pms 0] 
r -t 0.006507542 -Hs 22 -Hd -1 -Ni 22 -Nx 592.00 -Ny 271.00 -Nz 0.00 -Ne -1.000000 -Nl MAC -Nw --- -Ma 0 -Md ffffffff -Ms e -Mt 800 -Is 14.255 -Id -1.255 -It undefined -Il 48 -If 0 -Ii 0 -Iv 32 -P olsr -Pn 1 -Ps 0 [-Pt HELLO -Po 14 -Ph 0 -Pms 0] 
r -t 0.006507641 -Hs 24 -Hd -1 -Ni 24 -Nx 392.00 -Ny 221.00 -Nz 0.00 -Ne -1.000000 -Nl MAC -Nw --- -Ma 0 -Md ffffffff -Ms e -Mt 800 -Is 14.255 -Id -1.255 -It undefined -Il 48 -If 0 -Ii 0 -Iv 32 -P olsr -Pn 1 -Ps 0 [-Pt HELLO -Po 14 -Ph 0 -Pms 0] 
r -t 0.006507641 -Hs 0 -Hd -1 -Ni 0 -Nx 392.00 -Ny 421.00 -Nz 0.00 -Ne -1.000000 -Nl MAC -Nw --- -Ma 0 -Md ffffffff -Ms e -Mt 800 -Is 14.255 -Id -1.255 -It undefined -Il 48 -If 0 -Ii 0 -Iv 32 -P olsr -Pn 1 -Ps 0 [-Pt HELLO -Po 14 -Ph 0 -Pms 0] 
r -t 0.006507641 -Hs 4 -Hd -1 -Ni 4 -Nx 592.00 -Ny 421.00 -Nz 0.00 -Ne -1.000000 -Nl MAC -Nw --- -Ma 0 -Md ffffffff -Ms e -Mt 800 -Is 14.255 -Id -1.255 -It undefined -Il 48 -If 0 -Ii 0 -Iv 32 -P olsr -Pn 1 -Ps 0 [-Pt HELLO -Po 14 -Ph 0 -Pms 0] 
r -t 0.006507641 -Hs 28 -Hd -1 -Ni 28 -Nx 592.00 -Ny 221.00 -Nz 0.00 -Ne -1.000000 -Nl MAC -Nw --- -Ma 0 -Md ffffffff -Ms e -Mt 800 -Is 14.255 -Id -1.255 -It undefined -Il 48 -If 0 -Ii 0 -Iv 32 -P olsr -Pn 1 -Ps 0 [-Pt HELLO -Po 14 -Ph 0 -Pms 0] 
r -t 0.006507669 -Hs 17 -Hd -1 -Ni 17 -Nx 642.00 -Ny 321.00 -Nz 0.00 -Ne -1.000000 -Nl MAC -Nw --- -Ma 0 -Md ffffffff -Ms e -Mt 800 -Is 14.255 -Id -1.255 -It undefined -Il 48 -If 0 -Ii 0 -Iv 32 -P olsr -Pn 1 -Ps 0 [-Pt HELLO -Po 14 -Ph 0 -Pms 0] 
r -t 0.006507696 -Hs 11 -Hd -1 -Ni 11 -Nx 642.00 -Ny 371.00 -Nz 0.00 -Ne -1.000000 -Nl MAC -Nw --- -Ma 0 -Md ffffffff -Ms e -Mt 800 -Is 14.255 -Id -1.255 -It undefined -Il 48 -If 0 -Ii 0 -Iv 32 -P olsr -Pn 1 -Ps 0 [-Pt HELLO -Po 14 -Ph 0 -Pms 0] 
r -t 0.006507696 -Hs 23 -Hd -1 -Ni 23 -Nx 642.00 -Ny 271.00 -Nz 0.00 -Ne -1.000000 -Nl MAC -Nw --- -Ma 0 -Md ffffffff -Ms e -Mt 800 -Is 14.255 -Id -1.255 -It undefined -Il 48 -If 0 -Ii 0 -Iv 32 -P olsr -Pn 1 -Ps 0 [-Pt HELLO -Po 14 -Ph 0 -Pms 0] 
r -t 0.006507770 -Hs 5 -Hd -1 -Ni 5 -Nx 642.00 -Ny 421.00 -Nz 0.00 -Ne -1.000000 -Nl MAC -Nw --- -Ma 0 -Md ffffffff -Ms e -Mt 800 -Is 14.255 -Id -1.255 -It undefined -Il 48 -If 0 -Ii 0 -Iv 32 -P olsr -Pn 1 -Ps 0 [-Pt HELLO -Po 14 -Ph 0 -Pms 0] 
r -t 0.006507770 -Hs 29 -Hd -1 -Ni 29 -Nx 642.00 -Ny 221.00 -Nz 0.00 -Ne -1.000000 -Nl MAC -Nw --- -Ma 0 -Md ffffffff -Ms e -Mt 800 -Is 14.255 -Id -1.255 -It undefined -Il 48 -If 0 -Ii 0 -Iv 32 -P olsr -Pn 1 -Ps 0 [-Pt HELLO -Po 14 -Ph 0 -Pms 0] 
r -t 0.006532336 -Hs 8 -Hd -1 -Ni 8 -Nx 492.00 -Ny 371.00 -Nz 0.00 -Ne -1.000000 -Nl RTR -Nw --- -Ma 0 -Md ffffffff -Ms e -Mt 800 -Is 14.255 -Id -1.255 -It undefined -Il 48 -If 0 -Ii 0 -Iv 32 -P olsr -Pn 1 -Ps 0 [-Pt HELLO -Po 14 -Ph 0 -Pms 0] 
r -t 0.006532336 -Hs 13 -Hd -1 -Ni 13 -Nx 442.00 -Ny 321.00 -Nz 0.00 -Ne -1.000000 -Nl RTR -Nw --- -Ma 0 -Md ffffffff -Ms e -Mt 800 -Is 14.255 -Id -1.255 -It undefined -Il 48 -If 0 -Ii 0 -Iv 32 -P olsr -Pn 1 -Ps 0 [-Pt HELLO -Po 14 -Ph 0 -Pms 0] 
r -t 0.006532336 -Hs 20 -Hd -1 -Ni 20 -Nx 492.00 -Ny 271.00 -Nz 0.00 -Ne -1.000000 -Nl RTR -Nw --- -Ma 0 -Md ffffffff -Ms e -Mt 800 -Is 14.255 -Id -1.255 -It undefined -Il 48 -If 0 -Ii 0 -Iv 32 -P olsr -Pn 1 -Ps 0 [-Pt HELLO -Po 14 -Ph 0 -Pms 0] 
r -t 0.006532336 -Hs 15 -Hd -1 -Ni 15 -Nx 542.00 -Ny 321.00 -Nz 0.00 -Ne -1.000000 -Nl RTR -Nw --- -Ma 0 -Md ffffffff -Ms e -Mt 800 -Is 14.255 -Id -1.255 -It undefined -Il 48 -If 0 -Ii 0 -Iv 32 -P olsr -Pn 1 -Ps 0 [-Pt HELLO -Po 14 -Ph 0 -Pms 0] 
r -t 0.006532405 -Hs 19 -Hd -1 -Ni 19 -Nx 442.00 -Ny 271.00 -Nz 0.00 -Ne -1.000000 -Nl RTR -Nw --- -Ma 0 -Md ffffffff -Ms e -Mt 800 -Is 14.255 -Id -1.255 -It undefined -Il 48 -If 0 -Ii 0 -Iv 32 -P olsr -Pn 1 -Ps 0 [-Pt HELLO -Po 14 -Ph 0 -Pms 0] 
r -t 0.006532405 -Hs 7 -Hd -1 -Ni 7 -Nx 442.00 -Ny 371.00 -Nz 0.00 -Ne -1.000000 -Nl RTR -Nw --- -Ma 0 -Md ffffffff -Ms e -Mt 800 -Is 14.255 -Id -1.255 -It undefined -Il 48 -If 0 -Ii 0 -Iv 32 -P olsr -Pn 1 -Ps 0 [-Pt HELLO -Po 14 -Ph 0 -Pms 0] 
r -t 0.006532405 -Hs 9 -Hd -1 -Ni 9 -Nx 542.00 -Ny 371.00 -Nz 0.00 -Ne -1.000000 -Nl RTR -Nw --- -Ma 0 -Md ffffffff -Ms e -Mt 800 -Is 14.255 -Id -1.255 -It undefined -Il 48 -If 0 -Ii 0 -Iv 32 -P olsr -Pn 1 -Ps 0 [-Pt HELLO -Po 14 -Ph 0 -Pms 0] 
r -t 0.006532405 -Hs 21 -Hd -1 -Ni 21 -Nx 542.00 -Ny 271.00 -Nz 0.00 -Ne -1.000000 -Nl RTR -Nw --- -Ma 0 -Md ffffffff -Ms e -Mt 800 -Is 14.255 -Id -1.255 -It undefined -Il 48 -If 0 -Ii 0 -Iv 32 -P olsr -Pn 1 -Ps 0 [-Pt HELLO -Po 14 -Ph 0 -Pms 0] 
r -t 0.006532502 -Hs 2 -Hd -1 -Ni 2 -Nx 492.00 -Ny 421.00 -Nz 0.00 -Ne -1.000000 -Nl RTR -Nw --- -Ma 0 -Md ffffffff -Ms e -Mt 800 -Is 14.255 -Id -1.255 -It undefined -Il 48 -If 0 -Ii 0 -Iv 32 -P olsr -Pn 1 -Ps 0 [-Pt HELLO -Po 14 -Ph 0 -Pms 0] 
r -t 0.006532502 -Hs 12 -Hd -1 -Ni 12 -Nx 392.00 -Ny 321.00 -Nz 0.00 -Ne -1.000000 -Nl RTR -Nw --- -Ma 0 -Md ffffffff -Ms e -Mt 800 -Is 14.255 -Id -1.255 -It undefined -Il 48 -If 0 -Ii 0 -Iv 32 -P olsr -Pn 1 -Ps 0 [-Pt HELLO -Po 14 -Ph 0 -Pms 0] 
r -t 0.006532502 -Hs 26 -Hd -1 -Ni 26 -Nx 492.00 -Ny 221.00 -Nz 0.00 -Ne -1.000000 -Nl RTR -Nw --- -Ma 0 -Md ffffffff -Ms e -Mt 800 -Is 14.255 -Id -1.255 -It undefined -Il 48 -If 0 -Ii 0 -Iv 32 -P olsr -Pn 1 -Ps 0 [-Pt HELLO -Po 14 -Ph 0 -Pms 0] 
r -t 0.006532502 -Hs 16 -Hd -1 -Ni 16 -Nx 592.00 -Ny 321.00 -Nz 0.00 -Ne -1.000000 -Nl RTR -Nw --- -Ma 0 -Md ffffffff -Ms e -Mt 800 -Is 14.255 -Id -1.255 -It undefined -Il 48 -If 0 -Ii 0 -Iv 32 -P olsr -Pn 1 -Ps 0 [-Pt HELLO -Po 14 -Ph 0 -Pms 0] 
r -t 0.006532542 -Hs 25 -Hd -1 -Ni 25 -Nx 442.00 -Ny 221.00 -Nz 0.00 -Ne -1.000000 -Nl RTR -Nw --- -Ma 0 -Md ffffffff -Ms e -Mt 800 -Is 14.255 -Id -1.255 -It undefined -Il 48 -If 0 -Ii 0 -Iv 32 -P olsr -Pn 1 -Ps 0 [-Pt HELLO -Po 14 -Ph 0 -Pms 0] 
r -t 0.006532542 -Hs 1 -Hd -1 -Ni 1 -Nx 442.00 -Ny 421.00 -Nz 0.00 -Ne -1.000000 -Nl RTR -Nw --- -Ma 0 -Md ffffffff -Ms e -Mt 800 -Is 14.255 -Id -1.255 -It undefined -Il 48 -If 0 -Ii 0 -Iv 32 -P olsr -Pn 1 -Ps 0 [-Pt HELLO -Po 14 -Ph 0 -Pms 0] 
r -t 0.006532542 -Hs 18 -Hd -1 -Ni 18 -Nx 392.00 -Ny 271.00 -Nz 0.00 -Ne -1.000000 -Nl RTR -Nw --- -Ma 0 -Md ffffffff -Ms e -Mt 800 -Is 14.255 -Id -1.255 -It undefined -Il 48 -If 0 -Ii 0 -Iv 32 -P olsr -Pn 1 -Ps 0 [-Pt HELLO -Po 14 -Ph 0 -Pms 0] 
r -t 0.006532542 -Hs 6 -Hd -1 -Ni 6 -Nx 392.00 -Ny 371.00 -Nz 0.00 -Ne -1.000000 -Nl RTR -Nw --- -Ma 0 -Md ffffffff -Ms e -Mt 800 -Is 14.255 -Id -1.255 -It undefined -Il 48 -If 0 -Ii 0 -Iv 32 -P olsr -Pn 1 -Ps 0 [-Pt HELLO -Po 14 -Ph 0 -Pms 0] 
r -t 0.006532542 -Hs 3 -Hd -1 -Ni 3 -Nx 542.00 -Ny 421.00 -Nz 0.00 -Ne -1.000000 -Nl RTR -Nw --- -Ma 0 -Md ffffffff -Ms e -Mt 800 -Is 14.255 -Id -1.255 -It undefined -Il 48 -If 0 -Ii 0 -Iv 32 -P olsr -Pn 1 -Ps 0 [-Pt HELLO -Po 14 -Ph 0 -Pms 0] 
r -t 0.006532542 -Hs 27 -Hd -1 -Ni 27 -Nx 542.00 -Ny 221.00 -Nz 0.00 -Ne -1.000000 -Nl RTR -Nw --- -Ma 0 -Md ffffffff -Ms e -Mt 800 -Is 14.255 -Id -1.255 -It undefined -Il 48 -If 0 -Ii 0 -Iv 32 -P olsr -Pn 1 -Ps 0 [-Pt HELLO -Po 14 -Ph 0 -Pms 0] 
r -t 0.006532542 -Hs 10 -Hd -1 -Ni 10 -Nx 592.00 -Ny 371.00 -Nz 0.00 -Ne -1.000000 -Nl RTR -Nw --- -Ma 0 -Md ffffffff -Ms e -Mt 800 -Is 14.255 -Id -1.255 -It undefined -Il 48 -If 0 -Ii 0 -Iv 32 -P olsr -Pn 1 -Ps 0 [-Pt HELLO -Po 14 -Ph 0 -Pms 0] 
r -t 0.006532542 -Hs 22 -Hd -1 -Ni 22 -Nx 592.00 -Ny 271.00 -Nz 0.00 -Ne -1.000000 -Nl RTR -Nw --- -Ma 0 -Md ffffffff -Ms e -Mt 800 -Is 14.255 -Id -1.255 -It undefined -Il 48 -If 0 -Ii 0 -Iv 32 -P olsr -Pn 1 -Ps 0 [-Pt HELLO -Po 14 -Ph 0 -Pms 0] 
r -t 0.006532641 -Hs 24 -Hd -1 -Ni 24 -Nx 392.00 -Ny 221.00 -Nz 0.00 -Ne -1.000000 -Nl RTR -Nw --- -Ma 0 -Md ffffffff -Ms e -Mt 800 -Is 14.255 -Id -1.255 -It undefined -Il 48 -If 0 -Ii 0 -Iv 32 -P olsr -Pn 1 -Ps 0 [-Pt HELLO -Po 14 -Ph 0 -Pms 0] 
r -t 0.006532641 -Hs 0 -Hd -1 -Ni 0 -Nx 392.00 -Ny 421.00 -Nz 0.00 -Ne -1.000000 -Nl RTR -Nw --- -Ma 0 -Md ffffffff -Ms e -Mt 800 -Is 14.255 -Id -1.255 -It undefined -Il 48 -If 0 -Ii 0 -Iv 32 -P olsr -Pn 1 -Ps 0 [-Pt HELLO -Po 14 -Ph 0 -Pms 0] 
r -t 0.006532641 -Hs 4 -Hd -1 -Ni 4 -Nx 592.00 -Ny 421.00 -Nz 0.00 -Ne -1.000000 -Nl RTR -Nw --- -Ma 0 -Md ffffffff -Ms e -Mt 800 -Is 14.255 -Id -1.255 -It undefined -Il 48 -If 0 -Ii 0 -Iv 32 -P olsr -Pn 1 -Ps 0 [-Pt HELLO -Po 14 -Ph 0 -Pms 0] 
r -t 0.006532641 -Hs 28 -Hd -1 -Ni 28 -Nx 592.00 -Ny 221.00 -Nz 0.00 -Ne -1.000000 -Nl RTR -Nw --- -Ma 0 -Md ffffffff -Ms e -Mt 800 -Is 14.255 -Id -1.255 -It undefined -Il 48 -If 0 -Ii 0 -Iv 32 -P olsr -Pn 1 -Ps 0 [-Pt HELLO -Po 14 -Ph 0 -Pms 0] 
r -t 0.006532669 -Hs 17 -Hd -1 -Ni 17 -Nx 642.00 -Ny 321.00 -Nz 0.00 -Ne -1.000000 -Nl RTR -Nw --- -Ma 0 -Md ffffffff -Ms e -Mt 800 -Is 14.255 -Id -1.255 -It undefined -Il 48 -If 0 -Ii 0 -Iv 32 -P olsr -Pn 1 -Ps 0 [-Pt HELLO -Po 14 -Ph 0 -Pms 0] 
r -t 0.006532696 -Hs 11 -Hd -1 -Ni 11 -Nx 642.00 -Ny 371.00 -Nz 0.00 -Ne -1.000000 -Nl RTR -Nw --- -Ma 0 -Md ffffffff -Ms e -Mt 800 -Is 14.255 -Id -1.255 -It undefined -Il 48 -If 0 -Ii 0 -Iv 32 -P olsr -Pn 1 -Ps 0 [-Pt HELLO -Po 14 -Ph 0 -Pms 0] 
r -t 0.006532696 -Hs 23 -Hd -1 -Ni 23 -Nx 642.00 -Ny 271.00 -Nz 0.00 -Ne -1.000000 -Nl RTR -Nw --- -Ma 0 -Md ffffffff -Ms e -Mt 800 -Is 14.255 -Id -1.255 -It undefined -Il 48 -If 0 -Ii 0 -Iv 32 -P olsr -Pn 1 -Ps 0 [-Pt HELLO -Po 14 -Ph 0 -Pms 0] 
r -t 0.006532770 -Hs 5 -Hd -1 -Ni 5 -Nx 642.00 -Ny 421.00 -Nz 0.00 -Ne -1.000000 -Nl RTR -Nw --- -Ma 0 -Md ffffffff -Ms e -Mt 800 -Is 14.255 -Id -1.255 -It undefined -Il 48 -If 0 -Ii 0 -Iv 32 -P olsr -Pn 1 -Ps 0 [-Pt HELLO -Po 14 -Ph 0 -Pms 0] 
r -t 0.006532770 -Hs 29 -Hd -1 -Ni 29 -Nx 642.00 -Ny 221.00 -Nz 0.00 -Ne -1.000000 -Nl RTR -Nw --- -Ma 0 -Md ffffffff -Ms e -Mt 800 -Is 14.255 -Id -1.255 -It undefined -Il 48 -If 0 -Ii 0 -Iv 32 -P olsr -Pn 1 -Ps 0 [-Pt HELLO -Po 14 -Ph 0 -Pms 0] 
s -t 0.007102330 -Hs 0 -Hd -1 -Ni 0 -Nx 392.00 -Ny 421.00 -Nz 0.00 -Ne -1.000000 -Nl RTR -Nw --- -Ma 0 -Md 0 -Ms 0 -Mt 0 -Is 0.255 -Id -1.255 -It undefined -Il 48 -If 0 -Ii 1 -Iv 32 -P olsr -Pn 1 -Ps 0 [-Pt HELLO -Po 0 -Ph 0 -Pms 0] 
s -t 0.007617330 -Hs 0 -Hd -1 -Ni 0 -Nx 392.00 -Ny 421.00 -Nz 0.00 -Ne -1.000000 -Nl MAC -Nw --- -Ma 0 -Md ffffffff -Ms 0 -Mt 800 -Is 0.255 -Id -1.255 -It undefined -Il 106 -If 0 -Ii 1 -Iv 32 -P olsr -Pn 1 -Ps 0 [-Pt HELLO -Po 0 -Ph 0 -Pms 0] 
r -t 0.008465497 -Hs 6 -Hd -1 -Ni 6 -Nx 392.00 -Ny 371.00 -Nz 0.00 -Ne -1.000000 -Nl MAC -Nw --- -Ma 0 -Md ffffffff -Ms 0 -Mt 800 -Is 0.255 -Id -1.255 -It undefined -Il 48 -If 0 -Ii 1 -Iv 32 -P olsr -Pn 1 -Ps 0 [-Pt HELLO -Po 0 -Ph 0 -Pms 0] 
r -t 0.008465497 -Hs 1 -Hd -1 -Ni 1 -Nx 442.00 -Ny 421.00 -Nz 0.00 -Ne -1.000000 -Nl MAC -Nw --- -Ma 0 -Md ffffffff -Ms 0 -Mt 800 -Is 0.255 -Id -1.255 -It undefined -Il 48 -If 0 -Ii 1 -Iv 32 -P olsr -Pn 1 -Ps 0 [-Pt HELLO -Po 0 -Ph 0 -Pms 0] 
r -t 0.008465566 -Hs 7 -Hd -1 -Ni 7 -Nx 442.00 -Ny 371.00 -Nz 0.00 -Ne -1.000000 -Nl MAC -Nw --- -Ma 0 -Md ffffffff -Ms 0 -Mt 800 -Is 0.255 -Id -1.255 -It undefined -Il 48 -If 0 -Ii 1 -Iv 32 -P olsr -Pn 1 -Ps 0 [-Pt HELLO -Po 0 -Ph 0 -Pms 0] 
r -t 0.008465664 -Hs 12 -Hd -1 -Ni 12 -Nx 392.00 -Ny 321.00 -Nz 0.00 -Ne -1.000000 -Nl MAC -Nw --- -Ma 0 -Md ffffffff -Ms 0 -Mt 800 -Is 0.255 -Id -1.255 -It undefined -Il 48 -If 0 -Ii 1 -Iv 32 -P olsr -Pn 1 -Ps 0 [-Pt HELLO -Po 0 -Ph 0 -Pms 0] 
r -t 0.008465664 -Hs 2 -Hd -1 -Ni 2 -Nx 492.00 -Ny 421.00 -Nz 0.00 -Ne -1.000000 -Nl MAC -Nw --- -Ma 0 -Md ffffffff -Ms 0 -Mt 800 -Is 0.255 -Id -1.255 -It undefined -Il 48 -If 0 -Ii 1 -Iv 32 -P olsr -Pn 1 -Ps 0 [-Pt HELLO -Po 0 -Ph 0 -Pms 0] 
r -t 0.008465703 -Hs 13 -Hd -1 -Ni 13 -Nx 442.00 -Ny 321.00 -Nz 0.00 -Ne -1.000000 -Nl MAC -Nw --- -Ma 0 -Md ffffffff -Ms 0 -Mt 800 -Is 0.255 -Id -1.255 -It undefined -Il 48 -If 0 -Ii 1 -Iv 32 -P olsr -Pn 1 -Ps 0 [-Pt HELLO -Po 0 -Ph 0 -Pms 0] 
r -t 0.008465703 -Hs 8 -Hd -1 -Ni 8 -Nx 492.00 -Ny 371.00 -Nz 0.00 -Ne -1.000000 -Nl MAC -Nw --- -Ma 0 -Md ffffffff -Ms 0 -Mt 800 -Is 0.255 -Id -1.255 -It undefined -Il 48 -If 0 -Ii 1 -Iv 32 -P olsr -Pn 1 -Ps 0 [-Pt HELLO -Po 0 -Ph 0 -Pms 0] 
r -t 0.008465802 -Hs 14 -Hd -1 -Ni 14 -Nx 492.00 -Ny 321.00 -Nz 0.00 -Ne -1.000000 -Nl MAC -Nw --- -Ma 0 -Md ffffffff -Ms 0 -Mt 800 -Is 0.255 -Id -1.255 -It undefined -Il 48 -If 0 -Ii 1 -Iv 32 -P olsr -Pn 1 -Ps 0 [-Pt HELLO -Po 0 -Ph 0 -Pms 0] 
r -t 0.008465830 -Hs 18 -Hd -1 -Ni 18 -Nx 392.00 -Ny 271.00 -Nz 0.00 -Ne -1.000000 -Nl MAC -Nw --- -Ma 0 -Md ffffffff -Ms 0 -Mt 800 -Is 0.255 -Id -1.255 -It undefined -Il 48 -If 0 -Ii 1 -Iv 32 -P olsr -Pn 1 -Ps 0 [-Pt HELLO -Po 0 -Ph 0 -Pms 0] 
r -t 0.008465830 -Hs 3 -Hd -1 -Ni 3 -Nx 542.00 -Ny 421.00 -Nz 0.00 -Ne -1.000000 -Nl MAC -Nw --- -Ma 0 -Md ffffffff -Ms 0 -Mt 800 -Is 0.255 -Id -1.255 -It undefined -Il 48 -If 0 -Ii 1 -Iv 32 -P olsr -Pn 1 -Ps 0 [-Pt HELLO -Po 0 -Ph 0 -Pms 0] 
r -t 0.008465857 -Hs 19 -Hd -1 -Ni 19 -Nx 442.00 -Ny 271.00 -Nz 0.00 -Ne -1.000000 -Nl MAC -Nw --- -Ma 0 -Md ffffffff -Ms 0 -Mt 800 -Is 0.255 -Id -1.255 -It undefined -Il 48 -If 0 -Ii 1 -Iv 32 -P olsr -Pn 1 -Ps 0 [-Pt HELLO -Po 0 -Ph 0 -Pms 0] 
r -t 0.008465857 -Hs 9 -Hd -1 -Ni 9 -Nx 542.00 -Ny 371.00 -Nz 0.00 -Ne -1.000000 -Nl MAC -Nw --- -Ma 0 -Md ffffffff -Ms 0 -Mt 800 -Is 0.255 -Id -1.255 -It undefined -Il 48 -If 0 -Ii 1 -Iv 32 -P olsr -Pn 1 -Ps 0 [-Pt HELLO -Po 0 -Ph 0 -Pms 0] 
r -t 0.008465931 -Hs 20 -Hd -1 -Ni 20 -Nx 492.00 -Ny 271.00 -Nz 0.00 -Ne -1.000000 -Nl MAC -Nw --- -Ma 0 -Md ffffffff -Ms 0 -Mt 800 -Is 0.255 -Id -1.255 -It undefined -Il 48 -If 0 -Ii 1 -Iv 32 -P olsr -Pn 1 -Ps 0 [-Pt HELLO -Po 0 -Ph 0 -Pms 0] 
r -t 0.008465931 -Hs 15 -Hd -1 -Ni 15 -Nx 542.00 -Ny 321.00 -Nz 0.00 -Ne -1.000000 -Nl MAC -Nw --- -Ma 0 -Md ffffffff -Ms 0 -Mt 800 -Is 0.255 -Id -1.255 -It undefined -Il 48 -If 0 -Ii 1 -Iv 32 -P olsr -Pn 1 -Ps 0 [-Pt HELLO -Po 0 -Ph 0 -Pms 0] 
r -t 0.008465997 -Hs 24 -Hd -1 -Ni 24 -Nx 392.00 -Ny 221.00 -Nz 0.00 -Ne -1.000000 -Nl MAC -Nw --- -Ma 0 -Md ffffffff -Ms 0 -Mt 800 -Is 0.255 -Id -1.255 -It undefined -Il 48 -If 0 -Ii 1 -Iv 32 -P olsr -Pn 1 -Ps 0 [-Pt HELLO -Po 0 -Ph 0 -Pms 0] 
r -t 0.008465997 -Hs 4 -Hd -1 -Ni 4 -Nx 592.00 -Ny 421.00 -Nz 0.00 -Ne -1.000000 -Nl MAC -Nw --- -Ma 0 -Md ffffffff -Ms 0 -Mt 800 -Is 0.255 -Id -1.255 -It undefined -Il 48 -If 0 -Ii 1 -Iv 32 -P olsr -Pn 1 -Ps 0 [-Pt HELLO -Po 0 -Ph 0 -Pms 0] 
r -t 0.008466018 -Hs 25 -Hd -1 -Ni 25 -Nx 442.00 -Ny 221.00 -Nz 0.00 -Ne -1.000000 -Nl MAC -Nw --- -Ma 0 -Md ffffffff -Ms 0 -Mt 800 -Is 0.255 -Id -1.255 -It undefined -Il 48 -If 0 -Ii 1 -Iv 32 -P olsr -Pn 1 -Ps 0 [-Pt HELLO -Po 0 -Ph 0 -Pms 0] 
r -t 0.008466018 -Hs 10 -Hd -1 -Ni 10 -Nx 592.00 -Ny 371.00 -Nz 0.00 -Ne -1.000000 -Nl MAC -Nw --- -Ma 0 -Md ffffffff -Ms 0 -Mt 800 -Is 0.255 -Id -1.255 -It undefined -Il 48 -If 0 -Ii 1 -Iv 32 -P olsr -Pn 1 -Ps 0 [-Pt HELLO -Po 0 -Ph 0 -Pms 0] 
r -t 0.008466037 -Hs 21 -Hd -1 -Ni 21 -Nx 542.00 -Ny 271.00 -Nz 0.00 -Ne -1.000000 -Nl MAC -Nw --- -Ma 0 -Md ffffffff -Ms 0 -Mt 800 -Is 0.255 -Id -1.255 -It undefined -Il 48 -If 0 -Ii 1 -Iv 32 -P olsr -Pn 1 -Ps 0 [-Pt HELLO -Po 0 -Ph 0 -Pms 0] 
r -t 0.008466076 -Hs 26 -Hd -1 -Ni 26 -Nx 492.00 -Ny 221.00 -Nz 0.00 -Ne -1.000000 -Nl MAC -Nw --- -Ma 0 -Md ffffffff -Ms 0 -Mt 800 -Is 0.255 -Id -1.255 -It undefined -Il 48 -If 0 -Ii 1 -Iv 32 -P olsr -Pn 1 -Ps 0 [-Pt HELLO -Po 0 -Ph 0 -Pms 0] 
r -t 0.008466076 -Hs 16 -Hd -1 -Ni 16 -Nx 592.00 -Ny 321.00 -Nz 0.00 -Ne -1.000000 -Nl MAC -Nw --- -Ma 0 -Md ffffffff -Ms 0 -Mt 800 -Is 0.255 -Id -1.255 -It undefined -Il 48 -If 0 -Ii 1 -Iv 32 -P olsr -Pn 1 -Ps 0 [-Pt HELLO -Po 0 -Ph 0 -Pms 0] 
r -t 0.008466164 -Hs 27 -Hd -1 -Ni 27 -Nx 542.00 -Ny 221.00 -Nz 0.00 -Ne -1.000000 -Nl MAC -Nw --- -Ma 0 -Md ffffffff -Ms 0 -Mt 800 -Is 0.255 -Id -1.255 -It undefined -Il 48 -If 0 -Ii 1 -Iv 32 -P olsr -Pn 1 -Ps 0 [-Pt HELLO -Po 0 -Ph 0 -Pms 0] 
r -t 0.008466164 -Hs 22 -Hd -1 -Ni 22 -Nx 592.00 -Ny 271.00 -Nz 0.00 -Ne -1.000000 -Nl MAC -Nw --- -Ma 0 -Md ffffffff -Ms 0 -Mt 800 -Is 0.255 -Id -1.255 -It undefined -Il 48 -If 0 -Ii 1 -Iv 32 -P olsr -Pn 1 -Ps 0 [-Pt HELLO -Po 0 -Ph 0 -Pms 0] 
r -t 0.008466164 -Hs 5 -Hd -1 -Ni 5 -Nx 642.00 -Ny 421.00 -Nz 0.00 -Ne -1.000000 -Nl MAC -Nw --- -Ma 0 -Md ffffffff -Ms 0 -Mt 800 -Is 0.255 -Id -1.255 -It undefined -Il 48 -If 0 -Ii 1 -Iv 32 -P olsr -Pn 1 -Ps 0 [-Pt HELLO -Po 0 -Ph 0 -Pms 0] 
r -t 0.008490497 -Hs 6 -Hd -1 -Ni 6 -Nx 392.00 -Ny 371.00 -Nz 0.00 -Ne -1.000000 -Nl RTR -Nw --- -Ma 0 -Md ffffffff -Ms 0 -Mt 800 -Is 0.255 -Id -1.255 -It undefined -Il 48 -If 0 -Ii 1 -Iv 32 -P olsr -Pn 1 -Ps 0 [-Pt HELLO -Po 0 -Ph 0 -Pms 0] 
r -t 0.008490497 -Hs 1 -Hd -1 -Ni 1 -Nx 442.00 -Ny 421.00 -Nz 0.00 -Ne -1.000000 -Nl RTR -Nw --- -Ma 0 -Md ffffffff -Ms 0 -Mt 800 -Is 0.255 -Id -1.255 -It undefined -Il 48 -If 0 -Ii 1 -Iv 32 -P olsr -Pn 1 -Ps 0 [-Pt HELLO -Po 0 -Ph 0 -Pms 0] 
r -t 0.008490566 -Hs 7 -Hd -1 -Ni 7 -Nx 442.00 -Ny 371.00 -Nz 0.00 -Ne -1.000000 -Nl RTR -Nw --- -Ma 0 -Md ffffffff -Ms 0 -Mt 800 -Is 0.255 -Id -1.255 -It undefined -Il 48 -If 0 -Ii 1 -Iv 32 -P olsr -Pn 1 -Ps 0 [-Pt HELLO -Po 0 -Ph 0 -Pms 0] 
r -t 0.008490664 -Hs 12 -Hd -1 -Ni 12 -Nx 392.00 -Ny 321.00 -Nz 0.00 -Ne -1.000000 -Nl RTR -Nw --- -Ma 0 -Md ffffffff -Ms 0 -Mt 800 -Is 0.255 -Id -1.255 -It undefined -Il 48 -If 0 -Ii 1 -Iv 32 -P olsr -Pn 1 -Ps 0 [-Pt HELLO -Po 0 -Ph 0 -Pms 0] 
r -t 0.008490664 -Hs 2 -Hd -1 -Ni 2 -Nx 492.00 -Ny 421.00 -Nz 0.00 -Ne -1.000000 -Nl RTR -Nw --- -Ma 0 -Md ffffffff -Ms 0 -Mt 800 -Is 0.255 -Id -1.255 -It undefined -Il 48 -If 0 -Ii 1 -Iv 32 -P olsr -Pn 1 -Ps 0 [-Pt HELLO -Po 0 -Ph 0 -Pms 0] 
r -t 0.008490703 -Hs 13 -Hd -1 -Ni 13 -Nx 442.00 -Ny 321.00 -Nz 0.00 -Ne -1.000000 -Nl RTR -Nw --- -Ma 0 -Md ffffffff -Ms 0 -Mt 800 -Is 0.255 -Id -1.255 -It undefined -Il 48 -If 0 -Ii 1 -Iv 32 -P olsr -Pn 1 -Ps 0 [-Pt HELLO -Po 0 -Ph 0 -Pms 0] 
r -t 0.008490703 -Hs 8 -Hd -1 -Ni 8 -Nx 492.00 -Ny 371.00 -Nz 0.00 -Ne -1.000000 -Nl RTR -Nw --- -Ma 0 -Md ffffffff -Ms 0 -Mt 800 -Is 0.255 -Id -1.255 -It undefined -Il 48 -If 0 -Ii 1 -Iv 32 -P olsr -Pn 1 -Ps 0 [-Pt HELLO -Po 0 -Ph 0 -Pms 0] 
r -t 0.008490802 -Hs 14 -Hd -1 -Ni 14 -Nx 492.00 -Ny 321.00 -Nz 0.00 -Ne -1.000000 -Nl RTR -Nw --- -Ma 0 -Md ffffffff -Ms 0 -Mt 800 -Is 0.255 -Id -1.255 -It undefined -Il 48 -If 0 -Ii 1 -Iv 32 -P olsr -Pn 1 -Ps 0 [-Pt HELLO -Po 0 -Ph 0 -Pms 0] 
r -t 0.008490830 -Hs 18 -Hd -1 -Ni 18 -Nx 392.00 -Ny 271.00 -Nz 0.00 -Ne -1.000000 -Nl RTR -Nw --- -Ma 0 -Md ffffffff -Ms 0 -Mt 800 -Is 0.255 -Id -1.255 -It undefined -Il 48 -If 0 -Ii 1 -Iv 32 -P olsr -Pn 1 -Ps 0 [-Pt HELLO -Po 0 -Ph 0 -Pms 0] 
r -t 0.008490830 -Hs 3 -Hd -1 -Ni 3 -Nx 542.00 -Ny 421.00 -Nz 0.00 -Ne -1.000000 -Nl RTR -Nw --- -Ma 0 -Md ffffffff -Ms 0 -Mt 800 -Is 0.255 -Id -1.255 -It undefined -Il 48 -If 0 -Ii 1 -Iv 32 -P olsr -Pn 1 -Ps 0 [-Pt HELLO -Po 0 -Ph 0 -Pms 0] 
r -t 0.008490857 -Hs 19 -Hd -1 -Ni 19 -Nx 442.00 -Ny 271.00 -Nz 0.00 -Ne -1.000000 -Nl RTR -Nw --- -Ma 0 -Md ffffffff -Ms 0 -Mt 800 -Is 0.255 -Id -1.255 -It undefined -Il 48 -If 0 -Ii 1 -Iv 32 -P olsr -Pn 1 -Ps 0 [-Pt HELLO -Po 0 -Ph 0 -Pms 0] 
r -t 0.008490857 -Hs 9 -Hd -1 -Ni 9 -Nx 542.00 -Ny 371.00 -Nz 0.00 -Ne -1.000000 -Nl RTR -Nw --- -Ma 0 -Md ffffffff -Ms 0 -Mt 800 -Is 0.255 -Id -1.255 -It undefined -Il 48 -If 0 -Ii 1 -Iv 32 -P olsr -Pn 1 -Ps 0 [-Pt HELLO -Po 0 -Ph 0 -Pms 0] 
r -t 0.008490931 -Hs 20 -Hd -1 -Ni 20 -Nx 492.00 -Ny 271.00 -Nz 0.00 -Ne -1.000000 -Nl RTR -Nw --- -Ma 0 -Md ffffffff -Ms 0 -Mt 800 -Is 0.255 -Id -1.255 -It undefined -Il 48 -If 0 -Ii 1 -Iv 32 -P olsr -Pn 1 -Ps 0 [-Pt HELLO -Po 0 -Ph 0 -Pms 0] 
r -t 0.008490931 -Hs 15 -Hd -1 -Ni 15 -Nx 542.00 -Ny 321.00 -Nz 0.00 -Ne -1.000000 -Nl RTR -Nw --- -Ma 0 -Md ffffffff -Ms 0 -Mt 800 -Is 0.255 -Id -1.255 -It undefined -Il 48 -If 0 -Ii 1 -Iv 32 -P olsr -Pn 1 -Ps 0 [-Pt HELLO -Po 0 -Ph 0 -Pms 0] 
r -t 0.008490997 -Hs 24 -Hd -1 -Ni 24 -Nx 392.00 -Ny 221.00 -Nz 0.00 -Ne -1.000000 -Nl RTR -Nw --- -Ma 0 -Md ffffffff -Ms 0 -Mt 800 -Is 0.255 -Id -1.255 -It undefined -Il 48 -If 0 -Ii 1 -Iv 32 -P olsr -Pn 1 -Ps 0 [-Pt HELLO -Po 0 -Ph 0 -Pms 0] 
r -t 0.008490997 -Hs 4 -Hd -1 -Ni 4 -Nx 592.00 -Ny 421.00 -Nz 0.00 -Ne -1.000000 -Nl RTR -Nw --- -Ma 0 -Md ffffffff -Ms 0 -Mt 800 -Is 0.255 -Id -1.255 -It undefined -Il 48 -If 0 -Ii 1 -Iv 32 -P olsr -Pn 1 -Ps 0 [-Pt HELLO -Po 0 -Ph 0 -Pms 0] 
r -t 0.008491018 -Hs 25 -Hd -1 -Ni 25 -Nx 442.00 -Ny 221.00 -Nz 0.00 -Ne -1.000000 -Nl RTR -Nw --- -Ma 0 -Md ffffffff -Ms 0 -Mt 800 -Is 0.255 -Id -1.255 -It undefined -Il 48 -If 0 -Ii 1 -Iv 32 -P olsr -Pn 1 -Ps 0 [-Pt HELLO -Po 0 -Ph 0 -Pms 0] 
r -t 0.008491018 -Hs 10 -Hd -1 -Ni 10 -Nx 592.00 -Ny 371.00 -Nz 0.00 -Ne -1.000000 -Nl RTR -Nw --- -Ma 0 -Md ffffffff -Ms 0 -Mt 800 -Is 0.255 -Id -1.255 -It undefined -Il 48 -If 0 -Ii 1 -Iv 32 -P olsr -Pn 1 -Ps 0 [-Pt HELLO -Po 0 -Ph 0 -Pms 0] 
r -t 0.008491037 -Hs 21 -Hd -1 -Ni 21 -Nx 542.00 -Ny 271.00 -Nz 0.00 -Ne -1.000000 -Nl RTR -Nw --- -Ma 0 -Md ffffffff -Ms 0 -Mt 800 -Is 0.255 -Id -1.255 -It undefined -Il 48 -If 0 -Ii 1 -Iv 32 -P olsr -Pn 1 -Ps 0 [-Pt HELLO -Po 0 -Ph 0 -Pms 0] 
r -t 0.008491076 -Hs 26 -Hd -1 -Ni 26 -Nx 492.00 -Ny 221.00 -Nz 0.00 -Ne -1.000000 -Nl RTR -Nw --- -Ma 0 -Md ffffffff -Ms 0 -Mt 800 -Is 0.255 -Id -1.255 -It undefined -Il 48 -If 0 -Ii 1 -Iv 32 -P olsr -Pn 1 -Ps 0 [-Pt HELLO -Po 0 -Ph 0 -Pms 0] 
r -t 0.008491076 -Hs 16 -Hd -1 -Ni 16 -Nx 592.00 -Ny 321.00 -Nz 0.00 -Ne -1.000000 -Nl RTR -Nw --- -Ma 0 -Md ffffffff -Ms 0 -Mt 800 -Is 0.255 -Id -1.255 -It undefined -Il 48 -If 0 -Ii 1 -Iv 32 -P olsr -Pn 1 -Ps 0 [-Pt HELLO -Po 0 -Ph 0 -Pms 0] 
r -t 0.008491164 -Hs 27 -Hd -1 -Ni 27 -Nx 542.00 -Ny 221.00 -Nz 0.00 -Ne -1.000000 -Nl RTR -Nw --- -Ma 0 -Md ffffffff -Ms 0 -Mt 800 -Is 0.255 -Id -1.255 -It undefined -Il 48 -If 0 -Ii 1 -Iv 32 -P olsr -Pn 1 -Ps 0 [-Pt HELLO -Po 0 -Ph 0 -Pms 0] 
r -t 0.008491164 -Hs 22 -Hd -1 -Ni 22 -Nx 592.00 -Ny 271.00 -Nz 0.00 -Ne -1.000000 -Nl RTR -Nw --- -Ma 0 -Md ffffffff -Ms 0 -Mt 800 -Is 0.255 -Id -1.255 -It undefined -Il 48 -If 0 -Ii 1 -Iv 32 -P olsr -Pn 1 -Ps 0 [-Pt HELLO -Po 0 -Ph 0 -Pms 0] 
r -t 0.008491164 -Hs 5 -Hd -1 -Ni 5 -Nx 642.00 -Ny 421.00 -Nz 0.00 -Ne -1.000000 -Nl RTR -Nw --- -Ma 0 -Md ffffffff -Ms 0 -Mt 800 -Is 0.255 -Id -1.255 -It undefined -Il 48 -If 0 -Ii 1 -Iv 32 -P olsr -Pn 1 -Ps 0 [-Pt HELLO -Po 0 -Ph 0 -Pms 0] 
s -t 0.013778736 -Hs 18 -Hd -1 -Ni 18 -Nx 392.00 -Ny 271.00 -Nz 0.00 -Ne -1.000000 -Nl RTR -Nw --- -Ma 0 -Md 0 -Ms 0 -Mt 0 -Is 18.255 -Id -1.255 -It undefined -Il 48 -If 0 -Ii 2 -Iv 32 -P olsr -Pn 1 -Ps 0 [-Pt HELLO -Po 18 -Ph 0 -Pms 0] 
s -t 0.013973736 -Hs 18 -Hd -1 -Ni 18 -Nx 392.00 -Ny 271.00 -Nz 0.00 -Ne -1.000000 -Nl MAC -Nw --- -Ma 0 -Md ffffffff -Ms 12 -Mt 800 -Is 18.255 -Id -1.255 -It undefined -Il 106 -If 0 -Ii 2 -Iv 32 -P olsr -Pn 1 -Ps 0 [-Pt HELLO -Po 18 -Ph 0 -Pms 0] 
r -t 0.014821903 -Hs 12 -Hd -1 -Ni 12 -Nx 392.00 -Ny 321.00 -Nz 0.00 -Ne -1.000000 -Nl MAC -Nw --- -Ma 0 -Md ffffffff -Ms 12 -Mt 800 -Is 18.255 -Id -1.255 -It undefined -Il 48 -If 0 -Ii 2 -Iv 32 -P olsr -Pn 1 -Ps 0 [-Pt HELLO -Po 18 -Ph 0 -Pms 0] 
r -t 0.014821903 -Hs 24 -Hd -1 -Ni 24 -Nx 392.00 -Ny 221.00 -Nz 0.00 -Ne -1.000000 -Nl MAC -Nw --- -Ma 0 -Md ffffffff -Ms 12 -Mt 800 -Is 18.255 -Id -1.255 -It undefined -Il 48 -If 0 -Ii 2 -Iv 32 -P olsr -Pn 1 -Ps 0 [-Pt HELLO -Po 18 -Ph 0 -Pms 0] 
r -t 0.014821903 -Hs 19 -Hd -1 -Ni 19 -Nx 442.00 -Ny 271.00 -Nz 0.00 -Ne -1.000000 -Nl MAC -Nw --- -Ma 0 -Md ffffffff -Ms 12 -Mt 800 -Is 18.255 -Id -1.255 -It undefined -Il 48 -If 0 -Ii 2 -Iv 32 -P olsr -Pn 1 -Ps 0 [-Pt HELLO -Po 18 -Ph 0 -Pms 0] 
r -t 0.014821972 -Hs 13 -Hd -1 -Ni 13 -Nx 442.00 -Ny 321.00 -Nz 0.00 -Ne -1.000000 -Nl MAC -Nw --- -Ma 0 -Md ffffffff -Ms 12 -Mt 800 -Is 18.255 -Id -1.255 -It undefined -Il 48 -If 0 -Ii 2 -Iv 32 -P olsr -Pn 1 -Ps 0 [-Pt HELLO -Po 18 -Ph 0 -Pms 0] 
r -t 0.014821972 -Hs 25 -Hd -1 -Ni 25 -Nx 442.00 -Ny 221.00 -Nz 0.00 -Ne -1.000000 -Nl MAC -Nw --- -Ma 0 -Md ffffffff -Ms 12 -Mt 800 -Is 18.255 -Id -1.255 -It undefined -Il 48 -If 0 -Ii 2 -Iv 32 -P olsr -Pn 1 -Ps 0 [-Pt HELLO -Po 18 -Ph 0 -Pms 0] 
r -t 0.014822070 -Hs 6 -Hd -1 -Ni 6 -Nx 392.00 -Ny 371.00 -Nz 0.00 -Ne -1.000000 -Nl MAC -Nw --- -Ma 0 -Md ffffffff -Ms 12 -Mt 800 -Is 18.255 -Id -1.255 -It undefined -Il 48 -If 0 -Ii 2 -Iv 32 -P olsr -Pn 1 -Ps 0 [-Pt HELLO -Po 18 -Ph 0 -Pms 0] 
r -t 0.014822070 -Hs 20 -Hd -1 -Ni 20 -Nx 492.00 -Ny 271.00 -Nz 0.00 -Ne -1.000000 -Nl MAC -Nw --- -Ma 0 -Md ffffffff -Ms 12 -Mt 800 -Is 18.255 -Id -1.255 -It undefined -Il 48 -If 0 -Ii 2 -Iv 32 -P olsr -Pn 1 -Ps 0 [-Pt HELLO -Po 18 -Ph 0 -Pms 0] 
r -t 0.014822109 -Hs 7 -Hd -1 -Ni 7 -Nx 442.00 -Ny 371.00 -Nz 0.00 -Ne -1.000000 -Nl MAC -Nw --- -Ma 0 -Md ffffffff -Ms 12 -Mt 800 -Is 18.255 -Id -1.255 -It undefined -Il 48 -If 0 -Ii 2 -Iv 32 -P olsr -Pn 1 -Ps 0 [-Pt HELLO -Po 18 -Ph 0 -Pms 0] 
r -t 0.014822109 -Hs 14 -Hd -1 -Ni 14 -Nx 492.00 -Ny 321.00 -Nz 0.00 -Ne -1.000000 -Nl MAC -Nw --- -Ma 0 -Md ffffffff -Ms 12 -Mt 800 -Is 18.255 -Id -1.255 -It undefined -Il 48 -If 0 -Ii 2 -Iv 32 -P olsr -Pn 1 -Ps 0 [-Pt HELLO -Po 18 -Ph 0 -Pms 0] 
r -t 0.014822109 -Hs 26 -Hd -1 -Ni 26 -Nx 492.00 -Ny 221.00 -Nz 0.00 -Ne -1.000000 -Nl MAC -Nw --- -Ma 0 -Md ffffffff -Ms 12 -Mt 800 -Is 18.255 -Id -1.255 -It undefined -Il 48 -If 0 -Ii 2 -Iv 32 -P olsr -Pn 1 -Ps 0 [-Pt HELLO -Po 18 -Ph 0 -Pms 0] 