n -t * -s 0  -x 322 -y 425 -Z 0 -z 20  -v circle -c black
n -t * -s 1  -x 372 -y 425 -Z 0 -z 20  -v circle -c black
n -t * -s 2  -x 422 -y 425 -Z 0 -z 20  -v circle -c black
n -t * -s 3  -x 472 -y 425 -Z 0 -z 20  -v circle -c black
n -t * -s 4  -x 522 -y 425 -Z 0 -z 20  -v circle -c black
n -t * -s 5  -x 322 -y 375 -Z 0 -z 20  -v circle -c black
n -t * -s 6  -x 372 -y 375 -Z 0 -z 20  -v circle -c black
n -t * -s 7  -x 422 -y 375 -Z 0 -z 20  -v circle -c black
n -t * -s 8  -x 472 -y 375 -Z 0 -z 20  -v circle -c black
n -t * -s 9  -x 522 -y 375 -Z 0 -z 20  -v circle -c black
n -t * -s 10  -x 322 -y 325 -Z 0 -z 20  -v circle -c black
n -t * -s 11  -x 372 -y 325 -Z 0 -z 20  -v circle -c black
n -t * -s 12  -x 422 -y 325 -Z 0 -z 20  -v circle -c black
n -t * -s 13  -x 472 -y 325 -Z 0 -z 20  -v circle -c black
n -t * -s 14  -x 522 -y 325 -Z 0 -z 20  -v circle -c black
n -t * -s 15  -x 322 -y 275 -Z 0 -z 20  -v circle -c black
n -t * -s 16  -x 372 -y 275 -Z 0 -z 20  -v circle -c black
n -t * -s 17  -x 422 -y 275 -Z 0 -z 20  -v circle -c black
n -t * -s 18  -x 472 -y 275 -Z 0 -z 20  -v circle -c black
n -t * -s 19  -x 522 -y 275 -Z 0 -z 20  -v circle -c black
V -t * -v 1.0a5 -a 0
W -t * -x 622 -y 525
A -t * -n 1 -p 0 -o 0x7fffffff -c 30 -a 1
A -t * -h 1 -m 1073741823 -s 0
+ -t 0.005404169 -s 14 -d -1 -p undefined -e 48 -c 2 -a 0 -i 0 -k RTR 
- -t 0.005404169 -s 14 -d -1 -p undefined -e 48 -c 2 -a 0 -i 0 -k RTR
h -t 0.005404169 -s 14 -d -1 -p undefined -e 48 -c 2 -a 0 -i 0 -k RTR
+ -t 0.005499169 -s 14 -d -1 -p undefined -e 106 -c 2 -a 0 -i 0 -k MAC 
- -t 0.005499169 -s 14 -d -1 -p undefined -e 106 -c 2 -a 0 -i 0 -k MAC
h -t 0.005499169 -s 14 -d -1 -p undefined -e 106 -c 2 -a 0 -i 0 -k MAC
r -t 0.006347336 -s 9 -d -1 -p undefined -e 48 -c 2 -a 0 -i 0 -k MAC
r -t 0.006347336 -s 13 -d -1 -p undefined -e 48 -c 2 -a 0 -i 0 -k MAC
r -t 0.006347336 -s 19 -d -1 -p undefined -e 48 -c 2 -a 0 -i 0 -k MAC
r -t 0.006347405 -s 18 -d -1 -p undefined -e 48 -c 2 -a 0 -i 0 -k MAC
r -t 0.006347405 -s 8 -d -1 -p undefined -e 48 -c 2 -a 0 -i 0 -k MAC
r -t 0.006347502 -s 4 -d -1 -p undefined -e 48 -c 2 -a 0 -i 0 -k MAC
r -t 0.006347502 -s 12 -d -1 -p undefined -e 48 -c 2 -a 0 -i 0 -k MAC
r -t 0.006347542 -s 3 -d -1 -p undefined -e 48 -c 2 -a 0 -i 0 -k MAC
r -t 0.006347542 -s 17 -d -1 -p undefined -e 48 -c 2 -a 0 -i 0 -k MAC
r -t 0.006347542 -s 7 -d -1 -p undefined -e 48 -c 2 -a 0 -i 0 -k MAC
r -t 0.006347641 -s 2 -d -1 -p undefined -e 48 -c 2 -a 0 -i 0 -k MAC
r -t 0.006347669 -s 11 -d -1 -p undefined -e 48 -c 2 -a 0 -i 0 -k MAC
r -t 0.006347696 -s 16 -d -1 -p undefined -e 48 -c 2 -a 0 -i 0 -k MAC
r -t 0.006347696 -s 6 -d -1 -p undefined -e 48 -c 2 -a 0 -i 0 -k MAC
r -t 0.006347770 -s 1 -d -1 -p undefined -e 48 -c 2 -a 0 -i 0 -k MAC
r -t 0.006347836 -s 10 -d -1 -p undefined -e 48 -c 2 -a 0 -i 0 -k MAC
r -t 0.006347856 -s 15 -d -1 -p undefined -e 48 -c 2 -a 0 -i 0 -k MAC
r -t 0.006347856 -s 5 -d -1 -p undefined -e 48 -c 2 -a 0 -i 0 -k MAC
r -t 0.006347914 -s 0 -d -1 -p undefined -e 48 -c 2 -a 0 -i 0 -k MAC
r -t 0.006372336 -s 9 -d -1 -p undefined -e 48 -c 2 -a 0 -i 0 -k RTR
r -t 0.006372336 -s 13 -d -1 -p undefined -e 48 -c 2 -a 0 -i 0 -k RTR
r -t 0.006372336 -s 19 -d -1 -p undefined -e 48 -c 2 -a 0 -i 0 -k RTR
r -t 0.006372405 -s 18 -d -1 -p undefined -e 48 -c 2 -a 0 -i 0 -k RTR
r -t 0.006372405 -s 8 -d -1 -p undefined -e 48 -c 2 -a 0 -i 0 -k RTR
r -t 0.006372502 -s 4 -d -1 -p undefined -e 48 -c 2 -a 0 -i 0 -k RTR
r -t 0.006372502 -s 12 -d -1 -p undefined -e 48 -c 2 -a 0 -i 0 -k RTR
r -t 0.006372542 -s 3 -d -1 -p undefined -e 48 -c 2 -a 0 -i 0 -k RTR
r -t 0.006372542 -s 17 -d -1 -p undefined -e 48 -c 2 -a 0 -i 0 -k RTR
r -t 0.006372542 -s 7 -d -1 -p undefined -e 48 -c 2 -a 0 -i 0 -k RTR
r -t 0.006372641 -s 2 -d -1 -p undefined -e 48 -c 2 -a 0 -i 0 -k RTR
r -t 0.006372669 -s 11 -d -1 -p undefined -e 48 -c 2 -a 0 -i 0 -k RTR
r -t 0.006372696 -s 16 -d -1 -p undefined -e 48 -c 2 -a 0 -i 0 -k RTR
r -t 0.006372696 -s 6 -d -1 -p undefined -e 48 -c 2 -a 0 -i 0 -k RTR
r -t 0.006372770 -s 1 -d -1 -p undefined -e 48 -c 2 -a 0 -i 0 -k RTR
r -t 0.006372836 -s 10 -d -1 -p undefined -e 48 -c 2 -a 0 -i 0 -k RTR
r -t 0.006372856 -s 15 -d -1 -p undefined -e 48 -c 2 -a 0 -i 0 -k RTR
r -t 0.006372856 -s 5 -d -1 -p undefined -e 48 -c 2 -a 0 -i 0 -k RTR
r -t 0.006372914 -s 0 -d -1 -p undefined -e 48 -c 2 -a 0 -i 0 -k RTR
+ -t 0.007102330 -s 0 -d -1 -p undefined -e 48 -c 2 -a 0 -i 1 -k RTR 
- -t 0.007102330 -s 0 -d -1 -p undefined -e 48 -c 2 -a 0 -i 1 -k RTR
h -t 0.007102330 -s 0 -d -1 -p undefined -e 48 -c 2 -a 0 -i 1 -k RTR
+ -t 0.007417330 -s 0 -d -1 -p undefined -e 106 -c 2 -a 0 -i 1 -k MAC 
- -t 0.007417330 -s 0 -d -1 -p undefined -e 106 -c 2 -a 0 -i 1 -k MAC
h -t 0.007417330 -s 0 -d -1 -p undefined -e 106 -c 2 -a 0 -i 1 -k MAC
r -t 0.008265497 -s 5 -d -1 -p undefined -e 48 -c 2 -a 0 -i 1 -k MAC
r -t 0.008265497 -s 1 -d -1 -p undefined -e 48 -c 2 -a 0 -i 1 -k MAC
r -t 0.008265566 -s 6 -d -1 -p undefined -e 48 -c 2 -a 0 -i 1 -k MAC
r -t 0.008265664 -s 10 -d -1 -p undefined -e 48 -c 2 -a 0 -i 1 -k MAC
r -t 0.008265664 -s 2 -d -1 -p undefined -e 48 -c 2 -a 0 -i 1 -k MAC
r -t 0.008265703 -s 11 -d -1 -p undefined -e 48 -c 2 -a 0 -i 1 -k MAC
r -t 0.008265703 -s 7 -d -1 -p undefined -e 48 -c 2 -a 0 -i 1 -k MAC
r -t 0.008265802 -s 12 -d -1 -p undefined -e 48 -c 2 -a 0 -i 1 -k MAC
r -t 0.008265830 -s 15 -d -1 -p undefined -e 48 -c 2 -a 0 -i 1 -k MAC
r -t 0.008265830 -s 3 -d -1 -p undefined -e 48 -c 2 -a 0 -i 1 -k MAC
r -t 0.008265857 -s 16 -d -1 -p undefined -e 48 -c 2 -a 0 -i 1 -k MAC
r -t 0.008265857 -s 8 -d -1 -p undefined -e 48 -c 2 -a 0 -i 1 -k MAC
r -t 0.008265931 -s 17 -d -1 -p undefined -e 48 -c 2 -a 0 -i 1 -k MAC
r -t 0.008265931 -s 13 -d -1 -p undefined -e 48 -c 2 -a 0 -i 1 -k MAC
r -t 0.008265997 -s 4 -d -1 -p undefined -e 48 -c 2 -a 0 -i 1 -k MAC
r -t 0.008266018 -s 9 -d -1 -p undefined -e 48 -c 2 -a 0 -i 1 -k MAC
r -t 0.008266037 -s 18 -d -1 -p undefined -e 48 -c 2 -a 0 -i 1 -k MAC
r -t 0.008266076 -s 14 -d -1 -p undefined -e 48 -c 2 -a 0 -i 1 -k MAC
r -t 0.008266164 -s 19 -d -1 -p undefined -e 48 -c 2 -a 0 -i 1 -k MAC
r -t 0.008290497 -s 5 -d -1 -p undefined -e 48 -c 2 -a 0 -i 1 -k RTR
r -t 0.008290497 -s 1 -d -1 -p undefined -e 48 -c 2 -a 0 -i 1 -k RTR
r -t 0.008290566 -s 6 -d -1 -p undefined -e 48 -c 2 -a 0 -i 1 -k RTR
r -t 0.008290664 -s 10 -d -1 -p undefined -e 48 -c 2 -a 0 -i 1 -k RTR
r -t 0.008290664 -s 2 -d -1 -p undefined -e 48 -c 2 -a 0 -i 1 -k RTR
r -t 0.008290703 -s 11 -d -1 -p undefined -e 48 -c 2 -a 0 -i 1 -k RTR
r -t 0.008290703 -s 7 -d -1 -p undefined -e 48 -c 2 -a 0 -i 1 -k RTR
r -t 0.008290802 -s 12 -d -1 -p undefined -e 48 -c 2 -a 0 -i 1 -k RTR
r -t 0.008290830 -s 15 -d -1 -p undefined -e 48 -c 2 -a 0 -i 1 -k RTR
r -t 0.008290830 -s 3 -d -1 -p undefined -e 48 -c 2 -a 0 -i 1 -k RTR
r -t 0.008290857 -s 16 -d -1 -p undefined -e 48 -c 2 -a 0 -i 1 -k RTR
r -t 0.008290857 -s 8 -d -1 -p undefined -e 48 -c 2 -a 0 -i 1 -k RTR
r -t 0.008290931 -s 17 -d -1 -p undefined -e 48 -c 2 -a 0 -i 1 -k RTR
r -t 0.008290931 -s 13 -d -1 -p undefined -e 48 -c 2 -a 0 -i 1 -k RTR
r -t 0.008290997 -s 4 -d -1 -p undefined -e 48 -c 2 -a 0 -i 1 -k RTR
r -t 0.008291018 -s 9 -d -1 -p undefined -e 48 -c 2 -a 0 -i 1 -k RTR
r -t 0.008291037 -s 18 -d -1 -p undefined -e 48 -c 2 -a 0 -i 1 -k RTR
r -t 0.008291076 -s 14 -d -1 -p undefined -e 48 -c 2 -a 0 -i 1 -k RTR
r -t 0.008291164 -s 19 -d -1 -p undefined -e 48 -c 2 -a 0 -i 1 -k RTR
+ -t 0.013778736 -s 18 -d -1 -p undefined -e 48 -c 2 -a 0 -i 2 -k RTR 
- -t 0.013778736 -s 18 -d -1 -p undefined -e 48 -c 2 -a 0 -i 2 -k RTR
h -t 0.013778736 -s 18 -d -1 -p undefined -e 48 -c 2 -a 0 -i 2 -k RTR
+ -t 0.014153736 -s 18 -d -1 -p undefined -e 106 -c 2 -a 0 -i 2 -k MAC 
- -t 0.014153736 -s 18 -d -1 -p undefined -e 106 -c 2 -a 0 -i 2 -k MAC
h -t 0.014153736 -s 18 -d -1 -p undefined -e 106 -c 2 -a 0 -i 2 -k MAC
r -t 0.015001903 -s 13 -d -1 -p undefined -e 48 -c 2 -a 0 -i 2 -k MAC
r -t 0.015001903 -s 17 -d -1 -p undefined -e 48 -c 2 -a 0 -i 2 -k MAC
r -t 0.015001903 -s 19 -d -1 -p undefined -e 48 -c 2 -a 0 -i 2 -k MAC
r -t 0.015001972 -s 12 -d -1 -p undefined -e 48 -c 2 -a 0 -i 2 -k MAC
r -t 0.015001972 -s 14 -d -1 -p undefined -e 48 -c 2 -a 0 -i 2 -k MAC
r -t 0.015002070 -s 8 -d -1 -p undefined -e 48 -c 2 -a 0 -i 2 -k MAC
r -t 0.015002070 -s 16 -d -1 -p undefined -e 48 -c 2 -a 0 -i 2 -k MAC
r -t 0.015002109 -s 7 -d -1 -p undefined -e 48 -c 2 -a 0 -i 2 -k MAC
r -t 0.015002109 -s 11 -d -1 -p undefined -e 48 -c 2 -a 0 -i 2 -k MAC
r -t 0.015002109 -s 9 -d -1 -p undefined -e 48 -c 2 -a 0 -i 2 -k MAC
r -t 0.015002208 -s 6 -d -1 -p undefined -e 48 -c 2 -a 0 -i 2 -k MAC
r -t 0.015002236 -s 3 -d -1 -p undefined -e 48 -c 2 -a 0 -i 2 -k MAC
r -t 0.015002236 -s 15 -d -1 -p undefined -e 48 -c 2 -a 0 -i 2 -k MAC
r -t 0.015002263 -s 2 -d -1 -p undefined -e 48 -c 2 -a 0 -i 2 -k MAC
r -t 0.015002263 -s 10 -d -1 -p undefined -e 48 -c 2 -a 0 -i 2 -k MAC
r -t 0.015002263 -s 4 -d -1 -p undefined -e 48 -c 2 -a 0 -i 2 -k MAC
r -t 0.015002337 -s 1 -d -1 -p undefined -e 48 -c 2 -a 0 -i 2 -k MAC
r -t 0.015002337 -s 5 -d -1 -p undefined -e 48 -c 2 -a 0 -i 2 -k MAC
r -t 0.015002443 -s 0 -d -1 -p undefined -e 48 -c 2 -a 0 -i 2 -k MAC
r -t 0.015026903 -s 13 -d -1 -p undefined -e 48 -c 2 -a 0 -i 2 -k RTR
r -t 0.015026903 -s 17 -d -1 -p undefined -e 48 -c 2 -a 0 -i 2 -k RTR
r -t 0.015026903 -s 19 -d -1 -p undefined -e 48 -c 2 -a 0 -i 2 -k RTR
r -t 0.015026972 -s 12 -d -1 -p undefined -e 48 -c 2 -a 0 -i 2 -k RTR
r -t 0.015026972 -s 14 -d -1 -p undefined -e 48 -c 2 -a 0 -i 2 -k RTR
r -t 0.015027070 -s 8 -d -1 -p undefined -e 48 -c 2 -a 0 -i 2 -k RTR
r -t 0.015027070 -s 16 -d -1 -p undefined -e 48 -c 2 -a 0 -i 2 -k RTR
r -t 0.015027109 -s 7 -d -1 -p undefined -e 48 -c 2 -a 0 -i 2 -k RTR
r -t 0.015027109 -s 11 -d -1 -p undefined -e 48 -c 2 -a 0 -i 2 -k RTR
r -t 0.015027109 -s 9 -d -1 -p undefined -e 48 -c 2 -a 0 -i 2 -k RTR
r -t 0.015027208 -s 6 -d -1 -p undefined -e 48 -c 2 -a 0 -i 2 -k RTR
r -t 0.015027236 -s 3 -d -1 -p undefined -e 48 -c 2 -a 0 -i 2 -k RTR
r -t 0.015027236 -s 15 -d -1 -p undefined -e 48 -c 2 -a 0 -i 2 -k RTR
r -t 0.015027263 -s 2 -d -1 -p undefined -e 48 -c 2 -a 0 -i 2 -k RTR
r -t 0.015027263 -s 10 -d -1 -p undefined -e 48 -c 2 -a 0 -i 2 -k RTR
r -t 0.015027263 -s 4 -d -1 -p undefined -e 48 -c 2 -a 0 -i 2 -k RTR
r -t 0.015027337 -s 1 -d -1 -p undefined -e 48 -c 2 -a 0 -i 2 -k RTR
r -t 0.015027337 -s 5 -d -1 -p undefined -e 48 -c 2 -a 0 -i 2 -k RTR
r -t 0.015027443 -s 0 -d -1 -p undefined -e 48 -c 2 -a 0 -i 2 -k RTR
+ -t 0.061551748 -s 15 -d -1 -p undefined -e 48 -c 2 -a 0 -i 3 -k RTR 
- -t 0.061551748 -s 15 -d -1 -p undefined -e 48 -c 2 -a 0 -i 3 -k RTR
h -t 0.061551748 -s 15 -d -1 -p undefined -e 48 -c 2 -a 0 -i 3 -k RTR
+ -t 0.062086748 -s 15 -d -1 -p undefined -e 106 -c 2 -a 0 -i 3 -k MAC 
- -t 0.062086748 -s 15 -d -1 -p undefined -e 106 -c 2 -a 0 -i 3 -k MAC
h -t 0.062086748 -s 15 -d -1 -p undefined -e 106 -c 2 -a 0 -i 3 -k MAC
r -t 0.062934915 -s 10 -d -1 -p undefined -e 48 -c 2 -a 0 -i 3 -k MAC
r -t 0.062934915 -s 16 -d -1 -p undefined -e 48 -c 2 -a 0 -i 3 -k MAC
r -t 0.062934984 -s 11 -d -1 -p undefined -e 48 -c 2 -a 0 -i 3 -k MAC
r -t 0.062935081 -s 5 -d -1 -p undefined -e 48 -c 2 -a 0 -i 3 -k MAC
r -t 0.062935081 -s 17 -d -1 -p undefined -e 48 -c 2 -a 0 -i 3 -k MAC
r -t 0.062935121 -s 6 -d -1 -p undefined -e 48 -c 2 -a 0 -i 3 -k MAC
r -t 0.062935121 -s 12 -d -1 -p undefined -e 48 -c 2 -a 0 -i 3 -k MAC
r -t 0.062935219 -s 7 -d -1 -p undefined -e 48 -c 2 -a 0 -i 3 -k MAC
r -t 0.062935248 -s 0 -d -1 -p undefined -e 48 -c 2 -a 0 -i 3 -k MAC
r -t 0.062935248 -s 18 -d -1 -p undefined -e 48 -c 2 -a 0 -i 3 -k MAC
r -t 0.062935275 -s 1 -d -1 -p undefined -e 48 -c 2 -a 0 -i 3 -k MAC
r -t 0.062935275 -s 13 -d -1 -p undefined -e 48 -c 2 -a 0 -i 3 -k MAC
r -t 0.062935349 -s 2 -d -1 -p undefined -e 48 -c 2 -a 0 -i 3 -k MAC
r -t 0.062935349 -s 8 -d -1 -p undefined -e 48 -c 2 -a 0 -i 3 -k MAC
r -t 0.062935415 -s 19 -d -1 -p undefined -e 48 -c 2 -a 0 -i 3 -k MAC
r -t 0.062935435 -s 14 -d -1 -p undefined -e 48 -c 2 -a 0 -i 3 -k MAC
r -t 0.062935455 -s 3 -d -1 -p undefined -e 48 -c 2 -a 0 -i 3 -k MAC
r -t 0.062935493 -s 9 -d -1 -p undefined -e 48 -c 2 -a 0 -i 3 -k MAC
r -t 0.062935581 -s 4 -d -1 -p undefined -e 48 -c 2 -a 0 -i 3 -k MAC
r -t 0.062959915 -s 10 -d -1 -p undefined -e 48 -c 2 -a 0 -i 3 -k RTR
r -t 0.062959915 -s 16 -d -1 -p undefined -e 48 -c 2 -a 0 -i 3 -k RTR
r -t 0.062959984 -s 11 -d -1 -p undefined -e 48 -c 2 -a 0 -i 3 -k RTR
r -t 0.062960081 -s 5 -d -1 -p undefined -e 48 -c 2 -a 0 -i 3 -k RTR
r -t 0.062960081 -s 17 -d -1 -p undefined -e 48 -c 2 -a 0 -i 3 -k RTR
r -t 0.062960121 -s 6 -d -1 -p undefined -e 48 -c 2 -a 0 -i 3 -k RTR
r -t 0.062960121 -s 12 -d -1 -p undefined -e 48 -c 2 -a 0 -i 3 -k RTR
r -t 0.062960219 -s 7 -d -1 -p undefined -e 48 -c 2 -a 0 -i 3 -k RTR
r -t 0.062960248 -s 0 -d -1 -p undefined -e 48 -c 2 -a 0 -i 3 -k RTR
r -t 0.062960248 -s 18 -d -1 -p undefined -e 48 -c 2 -a 0 -i 3 -k RTR
r -t 0.062960275 -s 1 -d -1 -p undefined -e 48 -c 2 -a 0 -i 3 -k RTR
r -t 0.062960275 -s 13 -d -1 -p undefined -e 48 -c 2 -a 0 -i 3 -k RTR
r -t 0.062960349 -s 2 -d -1 -p undefined -e 48 -c 2 -a 0 -i 3 -k RTR
r -t 0.062960349 -s 8 -d -1 -p undefined -e 48 -c 2 -a 0 -i 3 -k RTR
r -t 0.062960415 -s 19 -d -1 -p undefined -e 48 -c 2 -a 0 -i 3 -k RTR
r -t 0.062960435 -s 14 -d -1 -p undefined -e 48 -c 2 -a 0 -i 3 -k RTR
r -t 0.062960455 -s 3 -d -1 -p undefined -e 48 -c 2 -a 0 -i 3 -k RTR
r -t 0.062960493 -s 9 -d -1 -p undefined -e 48 -c 2 -a 0 -i 3 -k RTR
r -t 0.062960581 -s 4 -d -1 -p undefined -e 48 -c 2 -a 0 -i 3 -k RTR
+ -t 0.093682621 -s 12 -d -1 -p undefined -e 48 -c 2 -a 0 -i 4 -k RTR 
- -t 0.093682621 -s 12 -d -1 -p undefined -e 48 -c 2 -a 0 -i 4 -k RTR
h -t 0.093682621 -s 12 -d -1 -p undefined -e 48 -c 2 -a 0 -i 4 -k RTR
+ -t 0.093957621 -s 12 -d -1 -p undefined -e 106 -c 2 -a 0 -i 4 -k MAC 
- -t 0.093957621 -s 12 -d -1 -p undefined -e 106 -c 2 -a 0 -i 4 -k MAC
h -t 0.093957621 -s 12 -d -1 -p undefined -e 106 -c 2 -a 0 -i 4 -k MAC
r -t 0.094805788 -s 7 -d -1 -p undefined -e 48 -c 2 -a 0 -i 4 -k MAC
r -t 0.094805788 -s 11 -d -1 -p undefined -e 48 -c 2 -a 0 -i 4 -k MAC
r -t 0.094805788 -s 17 -d -1 -p undefined -e 48 -c 2 -a 0 -i 4 -k MAC
r -t 0.094805788 -s 13 -d -1 -p undefined -e 48 -c 2 -a 0 -i 4 -k MAC
r -t 0.094805857 -s 16 -d -1 -p undefined -e 48 -c 2 -a 0 -i 4 -k MAC
r -t 0.094805857 -s 6 -d -1 -p undefined -e 48 -c 2 -a 0 -i 4 -k MAC
r -t 0.094805857 -s 8 -d -1 -p undefined -e 48 -c 2 -a 0 -i 4 -k MAC
r -t 0.094805857 -s 18 -d -1 -p undefined -e 48 -c 2 -a 0 -i 4 -k MAC
r -t 0.094805954 -s 2 -d -1 -p undefined -e 48 -c 2 -a 0 -i 4 -k MAC
r -t 0.094805954 -s 10 -d -1 -p undefined -e 48 -c 2 -a 0 -i 4 -k MAC
r -t 0.094805954 -s 14 -d -1 -p undefined -e 48 -c 2 -a 0 -i 4 -k MAC
r -t 0.094805994 -s 1 -d -1 -p undefined -e 48 -c 2 -a 0 -i 4 -k MAC
r -t 0.094805994 -s 15 -d -1 -p undefined -e 48 -c 2 -a 0 -i 4 -k MAC
r -t 0.094805994 -s 5 -d -1 -p undefined -e 48 -c 2 -a 0 -i 4 -k MAC
r -t 0.094805994 -s 3 -d -1 -p undefined -e 48 -c 2 -a 0 -i 4 -k MAC
r -t 0.094805994 -s 9 -d -1 -p undefined -e 48 -c 2 -a 0 -i 4 -k MAC
r -t 0.094805994 -s 19 -d -1 -p undefined -e 48 -c 2 -a 0 -i 4 -k MAC
r -t 0.094806092 -s 0 -d -1 -p undefined -e 48 -c 2 -a 0 -i 4 -k MAC
r -t 0.094806092 -s 4 -d -1 -p undefined -e 48 -c 2 -a 0 -i 4 -k MAC
r -t 0.094830788 -s 7 -d -1 -p undefined -e 48 -c 2 -a 0 -i 4 -k RTR
r -t 0.094830788 -s 11 -d -1 -p undefined -e 48 -c 2 -a 0 -i 4 -k RTR
r -t 0.094830788 -s 17 -d -1 -p undefined -e 48 -c 2 -a 0 -i 4 -k RTR
r -t 0.094830788 -s 13 -d -1 -p undefined -e 48 -c 2 -a 0 -i 4 -k RTR
r -t 0.094830857 -s 16 -d -1 -p undefined -e 48 -c 2 -a 0 -i 4 -k RTR
r -t 0.094830857 -s 6 -d -1 -p undefined -e 48 -c 2 -a 0 -i 4 -k RTR
r -t 0.094830857 -s 8 -d -1 -p undefined -e 48 -c 2 -a 0 -i 4 -k RTR
r -t 0.094830857 -s 18 -d -1 -p undefined -e 48 -c 2 -a 0 -i 4 -k RTR
r -t 0.094830954 -s 2 -d -1 -p undefined -e 48 -c 2 -a 0 -i 4 -k RTR
r -t 0.094830954 -s 10 -d -1 -p undefined -e 48 -c 2 -a 0 -i 4 -k RTR
r -t 0.094830954 -s 14 -d -1 -p undefined -e 48 -c 2 -a 0 -i 4 -k RTR
r -t 0.094830994 -s 1 -d -1 -p undefined -e 48 -c 2 -a 0 -i 4 -k RTR
r -t 0.094830994 -s 15 -d -1 -p undefined -e 48 -c 2 -a 0 -i 4 -k RTR
r -t 0.094830994 -s 5 -d -1 -p undefined -e 48 -c 2 -a 0 -i 4 -k RTR
r -t 0.094830994 -s 3 -d -1 -p undefined -e 48 -c 2 -a 0 -i 4 -k RTR
r -t 0.094830994 -s 9 -d -1 -p undefined -e 48 -c 2 -a 0 -i 4 -k RTR
r -t 0.094830994 -s 19 -d -1 -p undefined -e 48 -c 2 -a 0 -i 4 -k RTR
r -t 0.094831092 -s 0 -d -1 -p undefined -e 48 -c 2 -a 0 -i 4 -k RTR
r -t 0.094831092 -s 4 -d -1 -p undefined -e 48 -c 2 -a 0 -i 4 -k RTR
+ -t 0.108579730 -s 9 -d -1 -p undefined -e 48 -c 2 -a 0 -i 5 -k RTR 
- -t 0.108579730 -s 9 -d -1 -p undefined -e 48 -c 2 -a 0 -i 5 -k RTR
h -t 0.108579730 -s 9 -d -1 -p undefined -e 48 -c 2 -a 0 -i 5 -k RTR
+ -t 0.108734730 -s 9 -d -1 -p undefined -e 106 -c 2 -a 0 -i 5 -k MAC 
- -t 0.108734730 -s 9 -d -1 -p undefined -e 106 -c 2 -a 0 -i 5 -k MAC
h -t 0.108734730 -s 9 -d -1 -p undefined -e 106 -c 2 -a 0 -i 5 -k MAC
r -t 0.109582896 -s 4 -d -1 -p undefined -e 48 -c 2 -a 0 -i 5 -k MAC
r -t 0.109582896 -s 8 -d -1 -p undefined -e 48 -c 2 -a 0 -i 5 -k MAC
r -t 0.109582896 -s 14 -d -1 -p undefined -e 48 -c 2 -a 0 -i 5 -k MAC
r -t 0.109582965 -s 13 -d -1 -p undefined -e 48 -c 2 -a 0 -i 5 -k MAC
r -t 0.109582965 -s 3 -d -1 -p undefined -e 48 -c 2 -a 0 -i 5 -k MAC
r -t 0.109583063 -s 7 -d -1 -p undefined -e 48 -c 2 -a 0 -i 5 -k MAC
r -t 0.109583063 -s 19 -d -1 -p undefined -e 48 -c 2 -a 0 -i 5 -k MAC
r -t 0.109583102 -s 18 -d -1 -p undefined -e 48 -c 2 -a 0 -i 5 -k MAC
r -t 0.109583102 -s 12 -d -1 -p undefined -e 48 -c 2 -a 0 -i 5 -k MAC
r -t 0.109583102 -s 2 -d -1 -p undefined -e 48 -c 2 -a 0 -i 5 -k MAC
r -t 0.109583201 -s 17 -d -1 -p undefined -e 48 -c 2 -a 0 -i 5 -k MAC
r -t 0.109583230 -s 6 -d -1 -p undefined -e 48 -c 2 -a 0 -i 5 -k MAC
r -t 0.109583257 -s 11 -d -1 -p undefined -e 48 -c 2 -a 0 -i 5 -k MAC
r -t 0.109583257 -s 1 -d -1 -p undefined -e 48 -c 2 -a 0 -i 5 -k MAC
r -t 0.109583331 -s 16 -d -1 -p undefined -e 48 -c 2 -a 0 -i 5 -k MAC
r -t 0.109583396 -s 5 -d -1 -p undefined -e 48 -c 2 -a 0 -i 5 -k MAC
r -t 0.109583417 -s 10 -d -1 -p undefined -e 48 -c 2 -a 0 -i 5 -k MAC
r -t 0.109583417 -s 0 -d -1 -p undefined -e 48 -c 2 -a 0 -i 5 -k MAC
r -t 0.109583475 -s 15 -d -1 -p undefined -e 48 -c 2 -a 0 -i 5 -k MAC
r -t 0.109607896 -s 4 -d -1 -p undefined -e 48 -c 2 -a 0 -i 5 -k RTR
r -t 0.109607896 -s 8 -d -1 -p undefined -e 48 -c 2 -a 0 -i 5 -k RTR
r -t 0.109607896 -s 14 -d -1 -p undefined -e 48 -c 2 -a 0 -i 5 -k RTR
r -t 0.109607965 -s 13 -d -1 -p undefined -e 48 -c 2 -a 0 -i 5 -k RTR
r -t 0.109607965 -s 3 -d -1 -p undefined -e 48 -c 2 -a 0 -i 5 -k RTR
r -t 0.109608063 -s 7 -d -1 -p undefined -e 48 -c 2 -a 0 -i 5 -k RTR
r -t 0.109608063 -s 19 -d -1 -p undefined -e 48 -c 2 -a 0 -i 5 -k RTR
r -t 0.109608102 -s 18 -d -1 -p undefined -e 48 -c 2 -a 0 -i 5 -k RTR
r -t 0.109608102 -s 12 -d -1 -p undefined -e 48 -c 2 -a 0 -i 5 -k RTR
r -t 0.109608102 -s 2 -d -1 -p undefined -e 48 -c 2 -a 0 -i 5 -k RTR
r -t 0.109608201 -s 17 -d -1 -p undefined -e 48 -c 2 -a 0 -i 5 -k RTR
r -t 0.109608230 -s 6 -d -1 -p undefined -e 48 -c 2 -a 0 -i 5 -k RTR
r -t 0.109608257 -s 11 -d -1 -p undefined -e 48 -c 2 -a 0 -i 5 -k RTR
r -t 0.109608257 -s 1 -d -1 -p undefined -e 48 -c 2 -a 0 -i 5 -k RTR
r -t 0.109608331 -s 16 -d -1 -p undefined -e 48 -c 2 -a 0 -i 5 -k RTR
r -t 0.109608396 -s 5 -d -1 -p undefined -e 48 -c 2 -a 0 -i 5 -k RTR
r -t 0.109608417 -s 10 -d -1 -p undefined -e 48 -c 2 -a 0 -i 5 -k RTR
r -t 0.109608417 -s 0 -d -1 -p undefined -e 48 -c 2 -a 0 -i 5 -k RTR
r -t 0.109608475 -s 15 -d -1 -p undefined -e 48 -c 2 -a 0 -i 5 -k RTR
+ -t 0.117300876 -s 2 -d -1 -p undefined -e 48 -c 2 -a 0 -i 6 -k RTR 
- -t 0.117300876 -s 2 -d -1 -p undefined -e 48 -c 2 -a 0 -i 6 -k RTR
h -t 0.117300876 -s 2 -d -1 -p undefined -e 48 -c 2 -a 0 -i 6 -k RTR
+ -t 0.117575876 -s 2 -d -1 -p undefined -e 106 -c 2 -a 0 -i 6 -k MAC 
- -t 0.117575876 -s 2 -d -1 -p undefined -e 106 -c 2 -a 0 -i 6 -k MAC
h -t 0.117575876 -s 2 -d -1 -p undefined -e 106 -c 2 -a 0 -i 6 -k MAC
r -t 0.118424043 -s 1 -d -1 -p undefined -e 48 -c 2 -a 0 -i 6 -k MAC
r -t 0.118424043 -s 7 -d -1 -p undefined -e 48 -c 2 -a 0 -i 6 -k MAC
r -t 0.118424043 -s 3 -d -1 -p undefined -e 48 -c 2 -a 0 -i 6 -k MAC
r -t 0.118424112 -s 6 -d -1 -p undefined -e 48 -c 2 -a 0 -i 6 -k MAC
r -t 0.118424112 -s 8 -d -1 -p undefined -e 48 -c 2 -a 0 -i 6 -k MAC
r -t 0.118424209 -s 0 -d -1 -p undefined -e 48 -c 2 -a 0 -i 6 -k MAC
r -t 0.118424209 -s 12 -d -1 -p undefined -e 48 -c 2 -a 0 -i 6 -k MAC
r -t 0.118424209 -s 4 -d -1 -p undefined -e 48 -c 2 -a 0 -i 6 -k MAC
r -t 0.118424249 -s 11 -d -1 -p undefined -e 48 -c 2 -a 0 -i 6 -k MAC
r -t 0.118424249 -s 5 -d -1 -p undefined -e 48 -c 2 -a 0 -i 6 -k MAC
r -t 0.118424249 -s 13 -d -1 -p undefined -e 48 -c 2 -a 0 -i 6 -k MAC
r -t 0.118424249 -s 9 -d -1 -p undefined -e 48 -c 2 -a 0 -i 6 -k MAC
r -t 0.118424347 -s 10 -d -1 -p undefined -e 48 -c 2 -a 0 -i 6 -k MAC
r -t 0.118424347 -s 14 -d -1 -p undefined -e 48 -c 2 -a 0 -i 6 -k MAC
r -t 0.118424376 -s 17 -d -1 -p undefined -e 48 -c 2 -a 0 -i 6 -k MAC
r -t 0.118424403 -s 16 -d -1 -p undefined -e 48 -c 2 -a 0 -i 6 -k MAC
r -t 0.118424403 -s 18 -d -1 -p undefined -e 48 -c 2 -a 0 -i 6 -k MAC
r -t 0.118424477 -s 15 -d -1 -p undefined -e 48 -c 2 -a 0 -i 6 -k MAC
r -t 0.118424477 -s 19 -d -1 -p undefined -e 48 -c 2 -a 0 -i 6 -k MAC
r -t 0.118449043 -s 1 -d -1 -p undefined -e 48 -c 2 -a 0 -i 6 -k RTR
r -t 0.118449043 -s 7 -d -1 -p undefined -e 48 -c 2 -a 0 -i 6 -k RTR
r -t 0.118449043 -s 3 -d -1 -p undefined -e 48 -c 2 -a 0 -i 6 -k RTR
r -t 0.118449112 -s 6 -d -1 -p undefined -e 48 -c 2 -a 0 -i 6 -k RTR
r -t 0.118449112 -s 8 -d -1 -p undefined -e 48 -c 2 -a 0 -i 6 -k RTR
r -t 0.118449209 -s 0 -d -1 -p undefined -e 48 -c 2 -a 0 -i 6 -k RTR
r -t 0.118449209 -s 12 -d -1 -p undefined -e 48 -c 2 -a 0 -i 6 -k RTR
r -t 0.118449209 -s 4 -d -1 -p undefined -e 48 -c 2 -a 0 -i 6 -k RTR
r -t 0.118449249 -s 11 -d -1 -p undefined -e 48 -c 2 -a 0 -i 6 -k RTR
r -t 0.118449249 -s 5 -d -1 -p undefined -e 48 -c 2 -a 0 -i 6 -k RTR
r -t 0.118449249 -s 13 -d -1 -p undefined -e 48 -c 2 -a 0 -i 6 -k RTR
r -t 0.118449249 -s 9 -d -1 -p undefined -e 48 -c 2 -a 0 -i 6 -k RTR
r -t 0.118449347 -s 10 -d -1 -p undefined -e 48 -c 2 -a 0 -i 6 -k RTR
r -t 0.118449347 -s 14 -d -1 -p undefined -e 48 -c 2 -a 0 -i 6 -k RTR
r -t 0.118449376 -s 17 -d -1 -p undefined -e 48 -c 2 -a 0 -i 6 -k RTR
r -t 0.118449403 -s 16 -d -1 -p undefined -e 48 -c 2 -a 0 -i 6 -k RTR
r -t 0.118449403 -s 18 -d -1 -p undefined -e 48 -c 2 -a 0 -i 6 -k RTR
r -t 0.118449477 -s 15 -d -1 -p undefined -e 48 -c 2 -a 0 -i 6 -k RTR
r -t 0.118449477 -s 19 -d -1 -p undefined -e 48 -c 2 -a 0 -i 6 -k RTR
+ -t 0.130912074 -s 17 -d -1 -p undefined -e 48 -c 2 -a 0 -i 7 -k RTR 
- -t 0.130912074 -s 17 -d -1 -p undefined -e 48 -c 2 -a 0 -i 7 -k RTR
h -t 0.130912074 -s 17 -d -1 -p undefined -e 48 -c 2 -a 0 -i 7 -k RTR
+ -t 0.131327074 -s 17 -d -1 -p undefined -e 106 -c 2 -a 0 -i 7 -k MAC 
- -t 0.131327074 -s 17 -d -1 -p undefined -e 106 -c 2 -a 0 -i 7 -k MAC
h -t 0.131327074 -s 17 -d -1 -p undefined -e 106 -c 2 -a 0 -i 7 -k MAC
r -t 0.132175240 -s 12 -d -1 -p undefined -e 48 -c 2 -a 0 -i 7 -k MAC
r -t 0.132175240 -s 16 -d -1 -p undefined -e 48 -c 2 -a 0 -i 7 -k MAC
r -t 0.132175240 -s 18 -d -1 -p undefined -e 48 -c 2 -a 0 -i 7 -k MAC
r -t 0.132175309 -s 11 -d -1 -p undefined -e 48 -c 2 -a 0 -i 7 -k MAC
r -t 0.132175309 -s 13 -d -1 -p undefined -e 48 -c 2 -a 0 -i 7 -k MAC
r -t 0.132175407 -s 7 -d -1 -p undefined -e 48 -c 2 -a 0 -i 7 -k MAC
r -t 0.132175407 -s 15 -d -1 -p undefined -e 48 -c 2 -a 0 -i 7 -k MAC
r -t 0.132175407 -s 19 -d -1 -p undefined -e 48 -c 2 -a 0 -i 7 -k MAC
r -t 0.132175446 -s 6 -d -1 -p undefined -e 48 -c 2 -a 0 -i 7 -k MAC
r -t 0.132175446 -s 10 -d -1 -p undefined -e 48 -c 2 -a 0 -i 7 -k MAC
r -t 0.132175446 -s 8 -d -1 -p undefined -e 48 -c 2 -a 0 -i 7 -k MAC
r -t 0.132175446 -s 14 -d -1 -p undefined -e 48 -c 2 -a 0 -i 7 -k MAC
r -t 0.132175545 -s 5 -d -1 -p undefined -e 48 -c 2 -a 0 -i 7 -k MAC
r -t 0.132175545 -s 9 -d -1 -p undefined -e 48 -c 2 -a 0 -i 7 -k MAC
r -t 0.132175574 -s 2 -d -1 -p undefined -e 48 -c 2 -a 0 -i 7 -k MAC
r -t 0.132175601 -s 1 -d -1 -p undefined -e 48 -c 2 -a 0 -i 7 -k MAC
r -t 0.132175601 -s 3 -d -1 -p undefined -e 48 -c 2 -a 0 -i 7 -k MAC
r -t 0.132175675 -s 0 -d -1 -p undefined -e 48 -c 2 -a 0 -i 7 -k MAC
r -t 0.132175675 -s 4 -d -1 -p undefined -e 48 -c 2 -a 0 -i 7 -k MAC
r -t 0.132200240 -s 12 -d -1 -p undefined -e 48 -c 2 -a 0 -i 7 -k RTR
r -t 0.132200240 -s 16 -d -1 -p undefined -e 48 -c 2 -a 0 -i 7 -k RTR
r -t 0.132200240 -s 18 -d -1 -p undefined -e 48 -c 2 -a 0 -i 7 -k RTR
r -t 0.132200309 -s 11 -d -1 -p undefined -e 48 -c 2 -a 0 -i 7 -k RTR
r -t 0.132200309 -s 13 -d -1 -p undefined -e 48 -c 2 -a 0 -i 7 -k RTR
r -t 0.132200407 -s 7 -d -1 -p undefined -e 48 -c 2 -a 0 -i 7 -k RTR
r -t 0.132200407 -s 15 -d -1 -p undefined -e 48 -c 2 -a 0 -i 7 -k RTR
r -t 0.132200407 -s 19 -d -1 -p undefined -e 48 -c 2 -a 0 -i 7 -k RTR
r -t 0.132200446 -s 6 -d -1 -p undefined -e 48 -c 2 -a 0 -i 7 -k RTR
r -t 0.132200446 -s 10 -d -1 -p undefined -e 48 -c 2 -a 0 -i 7 -k RTR
r -t 0.132200446 -s 8 -d -1 -p undefined -e 48 -c 2 -a 0 -i 7 -k RTR
r -t 0.132200446 -s 14 -d -1 -p undefined -e 48 -c 2 -a 0 -i 7 -k RTR
r -t 0.132200545 -s 5 -d -1 -p undefined -e 48 -c 2 -a 0 -i 7 -k RTR
r -t 0.132200545 -s 9 -d -1 -p undefined -e 48 -c 2 -a 0 -i 7 -k RTR
r -t 0.132200574 -s 2 -d -1 -p undefined -e 48 -c 2 -a 0 -i 7 -k RTR
r -t 0.132200601 -s 1 -d -1 -p undefined -e 48 -c 2 -a 0 -i 7 -k RTR
r -t 0.132200601 -s 3 -d -1 -p undefined -e 48 -c 2 -a 0 -i 7 -k RTR
r -t 0.132200675 -s 0 -d -1 -p undefined -e 48 -c 2 -a 0 -i 7 -k RTR
r -t 0.132200675 -s 4 -d -1 -p undefined -e 48 -c 2 -a 0 -i 7 -k RTR
+ -t 0.202759539 -s 11 -d -1 -p undefined -e 48 -c 2 -a 0 -i 8 -k RTR 
- -t 0.202759539 -s 11 -d -1 -p undefined -e 48 -c 2 -a 0 -i 8 -k RTR
h -t 0.202759539 -s 11 -d -1 -p undefined -e 48 -c 2 -a 0 -i 8 -k RTR
+ -t 0.202954539 -s 11 -d -1 -p undefined -e 106 -c 2 -a 0 -i 8 -k MAC 
- -t 0.202954539 -s 11 -d -1 -p undefined -e 106 -c 2 -a 0 -i 8 -k MAC
h -t 0.202954539 -s 11 -d -1 -p undefined -e 106 -c 2 -a 0 -i 8 -k MAC
r -t 0.203802705 -s 6 -d -1 -p undefined -e 48 -c 2 -a 0 -i 8 -k MAC
r -t 0.203802705 -s 10 -d -1 -p undefined -e 48 -c 2 -a 0 -i 8 -k MAC
r -t 0.203802705 -s 16 -d -1 -p undefined -e 48 -c 2 -a 0 -i 8 -k MAC
r -t 0.203802705 -s 12 -d -1 -p undefined -e 48 -c 2 -a 0 -i 8 -k MAC
r -t 0.203802774 -s 15 -d -1 -p undefined -e 48 -c 2 -a 0 -i 8 -k MAC
r -t 0.203802774 -s 5 -d -1 -p undefined -e 48 -c 2 -a 0 -i 8 -k MAC
r -t 0.203802774 -s 7 -d -1 -p undefined -e 48 -c 2 -a 0 -i 8 -k MAC
r -t 0.203802774 -s 17 -d -1 -p undefined -e 48 -c 2 -a 0 -i 8 -k MAC
r -t 0.203802872 -s 1 -d -1 -p undefined -e 48 -c 2 -a 0 -i 8 -k MAC
r -t 0.203802872 -s 13 -d -1 -p undefined -e 48 -c 2 -a 0 -i 8 -k MAC
r -t 0.203802911 -s 0 -d -1 -p undefined -e 48 -c 2 -a 0 -i 8 -k MAC
r -t 0.203802911 -s 2 -d -1 -p undefined -e 48 -c 2 -a 0 -i 8 -k MAC
r -t 0.203802911 -s 8 -d -1 -p undefined -e 48 -c 2 -a 0 -i 8 -k MAC
r -t 0.203802911 -s 18 -d -1 -p undefined -e 48 -c 2 -a 0 -i 8 -k MAC
r -t 0.203803010 -s 3 -d -1 -p undefined -e 48 -c 2 -a 0 -i 8 -k MAC
r -t 0.203803039 -s 14 -d -1 -p undefined -e 48 -c 2 -a 0 -i 8 -k MAC
r -t 0.203803066 -s 9 -d -1 -p undefined -e 48 -c 2 -a 0 -i 8 -k MAC
r -t 0.203803066 -s 19 -d -1 -p undefined -e 48 -c 2 -a 0 -i 8 -k MAC
r -t 0.203803140 -s 4 -d -1 -p undefined -e 48 -c 2 -a 0 -i 8 -k MAC
r -t 0.203827705 -s 6 -d -1 -p undefined -e 48 -c 2 -a 0 -i 8 -k RTR
r -t 0.203827705 -s 10 -d -1 -p undefined -e 48 -c 2 -a 0 -i 8 -k RTR
r -t 0.203827705 -s 16 -d -1 -p undefined -e 48 -c 2 -a 0 -i 8 -k RTR
r -t 0.203827705 -s 12 -d -1 -p undefined -e 48 -c 2 -a 0 -i 8 -k RTR
r -t 0.203827774 -s 15 -d -1 -p undefined -e 48 -c 2 -a 0 -i 8 -k RTR
r -t 0.203827774 -s 5 -d -1 -p undefined -e 48 -c 2 -a 0 -i 8 -k RTR
r -t 0.203827774 -s 7 -d -1 -p undefined -e 48 -c 2 -a 0 -i 8 -k RTR
r -t 0.203827774 -s 17 -d -1 -p undefined -e 48 -c 2 -a 0 -i 8 -k RTR
r -t 0.203827872 -s 1 -d -1 -p undefined -e 48 -c 2 -a 0 -i 8 -k RTR
r -t 0.203827872 -s 13 -d -1 -p undefined -e 48 -c 2 -a 0 -i 8 -k RTR
r -t 0.203827911 -s 0 -d -1 -p undefined -e 48 -c 2 -a 0 -i 8 -k RTR
r -t 0.203827911 -s 2 -d -1 -p undefined -e 48 -c 2 -a 0 -i 8 -k RTR
r -t 0.203827911 -s 8 -d -1 -p undefined -e 48 -c 2 -a 0 -i 8 -k RTR
r -t 0.203827911 -s 18 -d -1 -p undefined -e 48 -c 2 -a 0 -i 8 -k RTR
r -t 0.203828010 -s 3 -d -1 -p undefined -e 48 -c 2 -a 0 -i 8 -k RTR
r -t 0.203828039 -s 14 -d -1 -p undefined -e 48 -c 2 -a 0 -i 8 -k RTR
r -t 0.203828066 -s 9 -d -1 -p undefined -e 48 -c 2 -a 0 -i 8 -k RTR
r -t 0.203828066 -s 19 -d -1 -p undefined -e 48 -c 2 -a 0 -i 8 -k RTR
r -t 0.203828140 -s 4 -d -1 -p undefined -e 48 -c 2 -a 0 -i 8 -k RTR
+ -t 0.204342838 -s 7 -d -1 -p undefined -e 48 -c 2 -a 0 -i 9 -k RTR 
- -t 0.204342838 -s 7 -d -1 -p undefined -e 48 -c 2 -a 0 -i 9 -k RTR
h -t 0.204342838 -s 7 -d -1 -p undefined -e 48 -c 2 -a 0 -i 9 -k RTR
+ -t 0.204997838 -s 7 -d -1 -p undefined -e 106 -c 2 -a 0 -i 9 -k MAC 
- -t 0.204997838 -s 7 -d -1 -p undefined -e 106 -c 2 -a 0 -i 9 -k MAC
h -t 0.204997838 -s 7 -d -1 -p undefined -e 106 -c 2 -a 0 -i 9 -k MAC
r -t 0.205846005 -s 2 -d -1 -p undefined -e 48 -c 2 -a 0 -i 9 -k MAC
r -t 0.205846005 -s 6 -d -1 -p undefined -e 48 -c 2 -a 0 -i 9 -k MAC
r -t 0.205846005 -s 12 -d -1 -p undefined -e 48 -c 2 -a 0 -i 9 -k MAC
r -t 0.205846005 -s 8 -d -1 -p undefined -e 48 -c 2 -a 0 -i 9 -k MAC
r -t 0.205846074 -s 11 -d -1 -p undefined -e 48 -c 2 -a 0 -i 9 -k MAC
r -t 0.205846074 -s 1 -d -1 -p undefined -e 48 -c 2 -a 0 -i 9 -k MAC
r -t 0.205846074 -s 3 -d -1 -p undefined -e 48 -c 2 -a 0 -i 9 -k MAC
r -t 0.205846074 -s 13 -d -1 -p undefined -e 48 -c 2 -a 0 -i 9 -k MAC
r -t 0.205846171 -s 5 -d -1 -p undefined -e 48 -c 2 -a 0 -i 9 -k MAC
r -t 0.205846171 -s 17 -d -1 -p undefined -e 48 -c 2 -a 0 -i 9 -k MAC