n -t * -s 0  -x 392 -y 421 -Z 0 -z 20  -v circle -c black
n -t * -s 1  -x 442 -y 421 -Z 0 -z 20  -v circle -c black
n -t * -s 2  -x 492 -y 421 -Z 0 -z 20  -v circle -c black
n -t * -s 3  -x 542 -y 421 -Z 0 -z 20  -v circle -c black
n -t * -s 4  -x 592 -y 421 -Z 0 -z 20  -v circle -c black
n -t * -s 5  -x 642 -y 421 -Z 0 -z 20  -v circle -c black
n -t * -s 6  -x 392 -y 371 -Z 0 -z 20  -v circle -c black
n -t * -s 7  -x 442 -y 371 -Z 0 -z 20  -v circle -c black
n -t * -s 8  -x 492 -y 371 -Z 0 -z 20  -v circle -c black
n -t * -s 9  -x 542 -y 371 -Z 0 -z 20  -v circle -c black
n -t * -s 10  -x 592 -y 371 -Z 0 -z 20  -v circle -c black
n -t * -s 11  -x 642 -y 371 -Z 0 -z 20  -v circle -c black
n -t * -s 12  -x 392 -y 321 -Z 0 -z 20  -v circle -c black
n -t * -s 13  -x 442 -y 321 -Z 0 -z 20  -v circle -c black
n -t * -s 14  -x 492 -y 321 -Z 0 -z 20  -v circle -c black
n -t * -s 15  -x 542 -y 321 -Z 0 -z 20  -v circle -c black
n -t * -s 16  -x 592 -y 321 -Z 0 -z 20  -v circle -c black
n -t * -s 17  -x 642 -y 321 -Z 0 -z 20  -v circle -c black
n -t * -s 18  -x 392 -y 271 -Z 0 -z 20  -v circle -c black
n -t * -s 19  -x 442 -y 271 -Z 0 -z 20  -v circle -c black
n -t * -s 20  -x 492 -y 271 -Z 0 -z 20  -v circle -c black
n -t * -s 21  -x 542 -y 271 -Z 0 -z 20  -v circle -c black
n -t * -s 22  -x 592 -y 271 -Z 0 -z 20  -v circle -c black
n -t * -s 23  -x 642 -y 271 -Z 0 -z 20  -v circle -c black
n -t * -s 24  -x 392 -y 221 -Z 0 -z 20  -v circle -c black
n -t * -s 25  -x 442 -y 221 -Z 0 -z 20  -v circle -c black
n -t * -s 26  -x 492 -y 221 -Z 0 -z 20  -v circle -c black
n -t * -s 27  -x 542 -y 221 -Z 0 -z 20  -v circle -c black
n -t * -s 28  -x 592 -y 221 -Z 0 -z 20  -v circle -c black
n -t * -s 29  -x 642 -y 221 -Z 0 -z 20  -v circle -c black
V -t * -v 1.0a5 -a 0
W -t * -x 742 -y 521
A -t * -n 1 -p 0 -o 0x7fffffff -c 30 -a 1
A -t * -h 1 -m 1073741823 -s 0
+ -t 0.005404169 -s 14 -d -1 -p undefined -e 48 -c 2 -a 0 -i 0 -k RTR 
- -t 0.005404169 -s 14 -d -1 -p undefined -e 48 -c 2 -a 0 -i 0 -k RTR
h -t 0.005404169 -s 14 -d -1 -p undefined -e 48 -c 2 -a 0 -i 0 -k RTR
+ -t 0.005659169 -s 14 -d -1 -p undefined -e 106 -c 2 -a 0 -i 0 -k MAC 
- -t 0.005659169 -s 14 -d -1 -p undefined -e 106 -c 2 -a 0 -i 0 -k MAC
h -t 0.005659169 -s 14 -d -1 -p undefined -e 106 -c 2 -a 0 -i 0 -k MAC
r -t 0.006507336 -s 8 -d -1 -p undefined -e 48 -c 2 -a 0 -i 0 -k MAC
r -t 0.006507336 -s 13 -d -1 -p undefined -e 48 -c 2 -a 0 -i 0 -k MAC
r -t 0.006507336 -s 20 -d -1 -p undefined -e 48 -c 2 -a 0 -i 0 -k MAC
r -t 0.006507336 -s 15 -d -1 -p undefined -e 48 -c 2 -a 0 -i 0 -k MAC
r -t 0.006507405 -s 19 -d -1 -p undefined -e 48 -c 2 -a 0 -i 0 -k MAC
r -t 0.006507405 -s 7 -d -1 -p undefined -e 48 -c 2 -a 0 -i 0 -k MAC
r -t 0.006507405 -s 9 -d -1 -p undefined -e 48 -c 2 -a 0 -i 0 -k MAC
r -t 0.006507405 -s 21 -d -1 -p undefined -e 48 -c 2 -a 0 -i 0 -k MAC
r -t 0.006507502 -s 2 -d -1 -p undefined -e 48 -c 2 -a 0 -i 0 -k MAC
r -t 0.006507502 -s 12 -d -1 -p undefined -e 48 -c 2 -a 0 -i 0 -k MAC
r -t 0.006507502 -s 26 -d -1 -p undefined -e 48 -c 2 -a 0 -i 0 -k MAC
r -t 0.006507502 -s 16 -d -1 -p undefined -e 48 -c 2 -a 0 -i 0 -k MAC
r -t 0.006507542 -s 25 -d -1 -p undefined -e 48 -c 2 -a 0 -i 0 -k MAC
r -t 0.006507542 -s 1 -d -1 -p undefined -e 48 -c 2 -a 0 -i 0 -k MAC
r -t 0.006507542 -s 18 -d -1 -p undefined -e 48 -c 2 -a 0 -i 0 -k MAC
r -t 0.006507542 -s 6 -d -1 -p undefined -e 48 -c 2 -a 0 -i 0 -k MAC
r -t 0.006507542 -s 3 -d -1 -p undefined -e 48 -c 2 -a 0 -i 0 -k MAC
r -t 0.006507542 -s 27 -d -1 -p undefined -e 48 -c 2 -a 0 -i 0 -k MAC
r -t 0.006507542 -s 10 -d -1 -p undefined -e 48 -c 2 -a 0 -i 0 -k MAC
r -t 0.006507542 -s 22 -d -1 -p undefined -e 48 -c 2 -a 0 -i 0 -k MAC
r -t 0.006507641 -s 24 -d -1 -p undefined -e 48 -c 2 -a 0 -i 0 -k MAC
r -t 0.006507641 -s 0 -d -1 -p undefined -e 48 -c 2 -a 0 -i 0 -k MAC
r -t 0.006507641 -s 4 -d -1 -p undefined -e 48 -c 2 -a 0 -i 0 -k MAC
r -t 0.006507641 -s 28 -d -1 -p undefined -e 48 -c 2 -a 0 -i 0 -k MAC
r -t 0.006507669 -s 17 -d -1 -p undefined -e 48 -c 2 -a 0 -i 0 -k MAC
r -t 0.006507696 -s 11 -d -1 -p undefined -e 48 -c 2 -a 0 -i 0 -k MAC
r -t 0.006507696 -s 23 -d -1 -p undefined -e 48 -c 2 -a 0 -i 0 -k MAC
r -t 0.006507770 -s 5 -d -1 -p undefined -e 48 -c 2 -a 0 -i 0 -k MAC
r -t 0.006507770 -s 29 -d -1 -p undefined -e 48 -c 2 -a 0 -i 0 -k MAC
r -t 0.006532336 -s 8 -d -1 -p undefined -e 48 -c 2 -a 0 -i 0 -k RTR
r -t 0.006532336 -s 13 -d -1 -p undefined -e 48 -c 2 -a 0 -i 0 -k RTR
r -t 0.006532336 -s 20 -d -1 -p undefined -e 48 -c 2 -a 0 -i 0 -k RTR
r -t 0.006532336 -s 15 -d -1 -p undefined -e 48 -c 2 -a 0 -i 0 -k RTR
r -t 0.006532405 -s 19 -d -1 -p undefined -e 48 -c 2 -a 0 -i 0 -k RTR
r -t 0.006532405 -s 7 -d -1 -p undefined -e 48 -c 2 -a 0 -i 0 -k RTR
r -t 0.006532405 -s 9 -d -1 -p undefined -e 48 -c 2 -a 0 -i 0 -k RTR
r -t 0.006532405 -s 21 -d -1 -p undefined -e 48 -c 2 -a 0 -i 0 -k RTR
r -t 0.006532502 -s 2 -d -1 -p undefined -e 48 -c 2 -a 0 -i 0 -k RTR
r -t 0.006532502 -s 12 -d -1 -p undefined -e 48 -c 2 -a 0 -i 0 -k RTR
r -t 0.006532502 -s 26 -d -1 -p undefined -e 48 -c 2 -a 0 -i 0 -k RTR
r -t 0.006532502 -s 16 -d -1 -p undefined -e 48 -c 2 -a 0 -i 0 -k RTR
r -t 0.006532542 -s 25 -d -1 -p undefined -e 48 -c 2 -a 0 -i 0 -k RTR
r -t 0.006532542 -s 1 -d -1 -p undefined -e 48 -c 2 -a 0 -i 0 -k RTR
r -t 0.006532542 -s 18 -d -1 -p undefined -e 48 -c 2 -a 0 -i 0 -k RTR
r -t 0.006532542 -s 6 -d -1 -p undefined -e 48 -c 2 -a 0 -i 0 -k RTR
r -t 0.006532542 -s 3 -d -1 -p undefined -e 48 -c 2 -a 0 -i 0 -k RTR
r -t 0.006532542 -s 27 -d -1 -p undefined -e 48 -c 2 -a 0 -i 0 -k RTR
r -t 0.006532542 -s 10 -d -1 -p undefined -e 48 -c 2 -a 0 -i 0 -k RTR
r -t 0.006532542 -s 22 -d -1 -p undefined -e 48 -c 2 -a 0 -i 0 -k RTR
r -t 0.006532641 -s 24 -d -1 -p undefined -e 48 -c 2 -a 0 -i 0 -k RTR
r -t 0.006532641 -s 0 -d -1 -p undefined -e 48 -c 2 -a 0 -i 0 -k RTR
r -t 0.006532641 -s 4 -d -1 -p undefined -e 48 -c 2 -a 0 -i 0 -k RTR
r -t 0.006532641 -s 28 -d -1 -p undefined -e 48 -c 2 -a 0 -i 0 -k RTR
r -t 0.006532669 -s 17 -d -1 -p undefined -e 48 -c 2 -a 0 -i 0 -k RTR
r -t 0.006532696 -s 11 -d -1 -p undefined -e 48 -c 2 -a 0 -i 0 -k RTR
r -t 0.006532696 -s 23 -d -1 -p undefined -e 48 -c 2 -a 0 -i 0 -k RTR
r -t 0.006532770 -s 5 -d -1 -p undefined -e 48 -c 2 -a 0 -i 0 -k RTR
r -t 0.006532770 -s 29 -d -1 -p undefined -e 48 -c 2 -a 0 -i 0 -k RTR
+ -t 0.007102330 -s 0 -d -1 -p undefined -e 48 -c 2 -a 0 -i 1 -k RTR 
- -t 0.007102330 -s 0 -d -1 -p undefined -e 48 -c 2 -a 0 -i 1 -k RTR
h -t 0.007102330 -s 0 -d -1 -p undefined -e 48 -c 2 -a 0 -i 1 -k RTR
+ -t 0.007617330 -s 0 -d -1 -p undefined -e 106 -c 2 -a 0 -i 1 -k MAC 
- -t 0.007617330 -s 0 -d -1 -p undefined -e 106 -c 2 -a 0 -i 1 -k MAC
h -t 0.007617330 -s 0 -d -1 -p undefined -e 106 -c 2 -a 0 -i 1 -k MAC
r -t 0.008465497 -s 6 -d -1 -p undefined -e 48 -c 2 -a 0 -i 1 -k MAC
r -t 0.008465497 -s 1 -d -1 -p undefined -e 48 -c 2 -a 0 -i 1 -k MAC
r -t 0.008465566 -s 7 -d -1 -p undefined -e 48 -c 2 -a 0 -i 1 -k MAC
r -t 0.008465664 -s 12 -d -1 -p undefined -e 48 -c 2 -a 0 -i 1 -k MAC
r -t 0.008465664 -s 2 -d -1 -p undefined -e 48 -c 2 -a 0 -i 1 -k MAC
r -t 0.008465703 -s 13 -d -1 -p undefined -e 48 -c 2 -a 0 -i 1 -k MAC
r -t 0.008465703 -s 8 -d -1 -p undefined -e 48 -c 2 -a 0 -i 1 -k MAC
r -t 0.008465802 -s 14 -d -1 -p undefined -e 48 -c 2 -a 0 -i 1 -k MAC
r -t 0.008465830 -s 18 -d -1 -p undefined -e 48 -c 2 -a 0 -i 1 -k MAC
r -t 0.008465830 -s 3 -d -1 -p undefined -e 48 -c 2 -a 0 -i 1 -k MAC
r -t 0.008465857 -s 19 -d -1 -p undefined -e 48 -c 2 -a 0 -i 1 -k MAC
r -t 0.008465857 -s 9 -d -1 -p undefined -e 48 -c 2 -a 0 -i 1 -k MAC
r -t 0.008465931 -s 20 -d -1 -p undefined -e 48 -c 2 -a 0 -i 1 -k MAC
r -t 0.008465931 -s 15 -d -1 -p undefined -e 48 -c 2 -a 0 -i 1 -k MAC
r -t 0.008465997 -s 24 -d -1 -p undefined -e 48 -c 2 -a 0 -i 1 -k MAC
r -t 0.008465997 -s 4 -d -1 -p undefined -e 48 -c 2 -a 0 -i 1 -k MAC
r -t 0.008466018 -s 25 -d -1 -p undefined -e 48 -c 2 -a 0 -i 1 -k MAC
r -t 0.008466018 -s 10 -d -1 -p undefined -e 48 -c 2 -a 0 -i 1 -k MAC
r -t 0.008466037 -s 21 -d -1 -p undefined -e 48 -c 2 -a 0 -i 1 -k MAC
r -t 0.008466076 -s 26 -d -1 -p undefined -e 48 -c 2 -a 0 -i 1 -k MAC
r -t 0.008466076 -s 16 -d -1 -p undefined -e 48 -c 2 -a 0 -i 1 -k MAC
r -t 0.008466164 -s 27 -d -1 -p undefined -e 48 -c 2 -a 0 -i 1 -k MAC
r -t 0.008466164 -s 22 -d -1 -p undefined -e 48 -c 2 -a 0 -i 1 -k MAC
r -t 0.008466164 -s 5 -d -1 -p undefined -e 48 -c 2 -a 0 -i 1 -k MAC
r -t 0.008490497 -s 6 -d -1 -p undefined -e 48 -c 2 -a 0 -i 1 -k RTR
r -t 0.008490497 -s 1 -d -1 -p undefined -e 48 -c 2 -a 0 -i 1 -k RTR
r -t 0.008490566 -s 7 -d -1 -p undefined -e 48 -c 2 -a 0 -i 1 -k RTR
r -t 0.008490664 -s 12 -d -1 -p undefined -e 48 -c 2 -a 0 -i 1 -k RTR
r -t 0.008490664 -s 2 -d -1 -p undefined -e 48 -c 2 -a 0 -i 1 -k RTR
r -t 0.008490703 -s 13 -d -1 -p undefined -e 48 -c 2 -a 0 -i 1 -k RTR
r -t 0.008490703 -s 8 -d -1 -p undefined -e 48 -c 2 -a 0 -i 1 -k RTR
r -t 0.008490802 -s 14 -d -1 -p undefined -e 48 -c 2 -a 0 -i 1 -k RTR
r -t 0.008490830 -s 18 -d -1 -p undefined -e 48 -c 2 -a 0 -i 1 -k RTR
r -t 0.008490830 -s 3 -d -1 -p undefined -e 48 -c 2 -a 0 -i 1 -k RTR
r -t 0.008490857 -s 19 -d -1 -p undefined -e 48 -c 2 -a 0 -i 1 -k RTR
r -t 0.008490857 -s 9 -d -1 -p undefined -e 48 -c 2 -a 0 -i 1 -k RTR
r -t 0.008490931 -s 20 -d -1 -p undefined -e 48 -c 2 -a 0 -i 1 -k RTR
r -t 0.008490931 -s 15 -d -1 -p undefined -e 48 -c 2 -a 0 -i 1 -k RTR
r -t 0.008490997 -s 24 -d -1 -p undefined -e 48 -c 2 -a 0 -i 1 -k RTR
r -t 0.008490997 -s 4 -d -1 -p undefined -e 48 -c 2 -a 0 -i 1 -k RTR
r -t 0.008491018 -s 25 -d -1 -p undefined -e 48 -c 2 -a 0 -i 1 -k RTR
r -t 0.008491018 -s 10 -d -1 -p undefined -e 48 -c 2 -a 0 -i 1 -k RTR
r -t 0.008491037 -s 21 -d -1 -p undefined -e 48 -c 2 -a 0 -i 1 -k RTR
r -t 0.008491076 -s 26 -d -1 -p undefined -e 48 -c 2 -a 0 -i 1 -k RTR
r -t 0.008491076 -s 16 -d -1 -p undefined -e 48 -c 2 -a 0 -i 1 -k RTR
r -t 0.008491164 -s 27 -d -1 -p undefined -e 48 -c 2 -a 0 -i 1 -k RTR
r -t 0.008491164 -s 22 -d -1 -p undefined -e 48 -c 2 -a 0 -i 1 -k RTR
r -t 0.008491164 -s 5 -d -1 -p undefined -e 48 -c 2 -a 0 -i 1 -k RTR
+ -t 0.013778736 -s 18 -d -1 -p undefined -e 48 -c 2 -a 0 -i 2 -k RTR 
- -t 0.013778736 -s 18 -d -1 -p undefined -e 48 -c 2 -a 0 -i 2 -k RTR
h -t 0.013778736 -s 18 -d -1 -p undefined -e 48 -c 2 -a 0 -i 2 -k RTR
+ -t 0.013973736 -s 18 -d -1 -p undefined -e 106 -c 2 -a 0 -i 2 -k MAC 
- -t 0.013973736 -s 18 -d -1 -p undefined -e 106 -c 2 -a 0 -i 2 -k MAC
h -t 0.013973736 -s 18 -d -1 -p undefined -e 106 -c 2 -a 0 -i 2 -k MAC
r -t 0.014821903 -s 12 -d -1 -p undefined -e 48 -c 2 -a 0 -i 2 -k MAC
r -t 0.014821903 -s 24 -d -1 -p undefined -e 48 -c 2 -a 0 -i 2 -k MAC
r -t 0.014821903 -s 19 -d -1 -p undefined -e 48 -c 2 -a 0 -i 2 -k MAC
r -t 0.014821972 -s 13 -d -1 -p undefined -e 48 -c 2 -a 0 -i 2 -k MAC
r -t 0.014821972 -s 25 -d -1 -p undefined -e 48 -c 2 -a 0 -i 2 -k MAC
r -t 0.014822070 -s 6 -d -1 -p undefined -e 48 -c 2 -a 0 -i 2 -k MAC
r -t 0.014822070 -s 20 -d -1 -p undefined -e 48 -c 2 -a 0 -i 2 -k MAC
r -t 0.014822109 -s 7 -d -1 -p undefined -e 48 -c 2 -a 0 -i 2 -k MAC
r -t 0.014822109 -s 14 -d -1 -p undefined -e 48 -c 2 -a 0 -i 2 -k MAC
r -t 0.014822109 -s 26 -d -1 -p undefined -e 48 -c 2 -a 0 -i 2 -k MAC
r -t 0.014822208 -s 8 -d -1 -p undefined -e 48 -c 2 -a 0 -i 2 -k MAC
r -t 0.014822236 -s 0 -d -1 -p undefined -e 48 -c 2 -a 0 -i 2 -k MAC
r -t 0.014822236 -s 21 -d -1 -p undefined -e 48 -c 2 -a 0 -i 2 -k MAC
r -t 0.014822263 -s 1 -d -1 -p undefined -e 48 -c 2 -a 0 -i 2 -k MAC
r -t 0.014822263 -s 15 -d -1 -p undefined -e 48 -c 2 -a 0 -i 2 -k MAC
r -t 0.014822263 -s 27 -d -1 -p undefined -e 48 -c 2 -a 0 -i 2 -k MAC
r -t 0.014822337 -s 2 -d -1 -p undefined -e 48 -c 2 -a 0 -i 2 -k MAC
r -t 0.014822337 -s 9 -d -1 -p undefined -e 48 -c 2 -a 0 -i 2 -k MAC
r -t 0.014822403 -s 22 -d -1 -p undefined -e 48 -c 2 -a 0 -i 2 -k MAC
r -t 0.014822423 -s 16 -d -1 -p undefined -e 48 -c 2 -a 0 -i 2 -k MAC
r -t 0.014822423 -s 28 -d -1 -p undefined -e 48 -c 2 -a 0 -i 2 -k MAC
r -t 0.014822443 -s 3 -d -1 -p undefined -e 48 -c 2 -a 0 -i 2 -k MAC
r -t 0.014822482 -s 10 -d -1 -p undefined -e 48 -c 2 -a 0 -i 2 -k MAC
r -t 0.014822570 -s 4 -d -1 -p undefined -e 48 -c 2 -a 0 -i 2 -k MAC
r -t 0.014822570 -s 23 -d -1 -p undefined -e 48 -c 2 -a 0 -i 2 -k MAC
r -t 0.014846903 -s 12 -d -1 -p undefined -e 48 -c 2 -a 0 -i 2 -k RTR
r -t 0.014846903 -s 24 -d -1 -p undefined -e 48 -c 2 -a 0 -i 2 -k RTR
r -t 0.014846903 -s 19 -d -1 -p undefined -e 48 -c 2 -a 0 -i 2 -k RTR
r -t 0.014846972 -s 13 -d -1 -p undefined -e 48 -c 2 -a 0 -i 2 -k RTR
r -t 0.014846972 -s 25 -d -1 -p undefined -e 48 -c 2 -a 0 -i 2 -k RTR
r -t 0.014847070 -s 6 -d -1 -p undefined -e 48 -c 2 -a 0 -i 2 -k RTR
r -t 0.014847070 -s 20 -d -1 -p undefined -e 48 -c 2 -a 0 -i 2 -k RTR
r -t 0.014847109 -s 7 -d -1 -p undefined -e 48 -c 2 -a 0 -i 2 -k RTR
r -t 0.014847109 -s 14 -d -1 -p undefined -e 48 -c 2 -a 0 -i 2 -k RTR
r -t 0.014847109 -s 26 -d -1 -p undefined -e 48 -c 2 -a 0 -i 2 -k RTR
r -t 0.014847208 -s 8 -d -1 -p undefined -e 48 -c 2 -a 0 -i 2 -k RTR
r -t 0.014847236 -s 0 -d -1 -p undefined -e 48 -c 2 -a 0 -i 2 -k RTR
r -t 0.014847236 -s 21 -d -1 -p undefined -e 48 -c 2 -a 0 -i 2 -k RTR
r -t 0.014847263 -s 1 -d -1 -p undefined -e 48 -c 2 -a 0 -i 2 -k RTR
r -t 0.014847263 -s 15 -d -1 -p undefined -e 48 -c 2 -a 0 -i 2 -k RTR
r -t 0.014847263 -s 27 -d -1 -p undefined -e 48 -c 2 -a 0 -i 2 -k RTR
r -t 0.014847337 -s 2 -d -1 -p undefined -e 48 -c 2 -a 0 -i 2 -k RTR
r -t 0.014847337 -s 9 -d -1 -p undefined -e 48 -c 2 -a 0 -i 2 -k RTR
r -t 0.014847403 -s 22 -d -1 -p undefined -e 48 -c 2 -a 0 -i 2 -k RTR
r -t 0.014847423 -s 16 -d -1 -p undefined -e 48 -c 2 -a 0 -i 2 -k RTR
r -t 0.014847423 -s 28 -d -1 -p undefined -e 48 -c 2 -a 0 -i 2 -k RTR
r -t 0.014847443 -s 3 -d -1 -p undefined -e 48 -c 2 -a 0 -i 2 -k RTR
r -t 0.014847482 -s 10 -d -1 -p undefined -e 48 -c 2 -a 0 -i 2 -k RTR
r -t 0.014847570 -s 4 -d -1 -p undefined -e 48 -c 2 -a 0 -i 2 -k RTR
r -t 0.014847570 -s 23 -d -1 -p undefined -e 48 -c 2 -a 0 -i 2 -k RTR
+ -t 0.025066702 -s 22 -d -1 -p undefined -e 48 -c 2 -a 0 -i 3 -k RTR 
- -t 0.025066702 -s 22 -d -1 -p undefined -e 48 -c 2 -a 0 -i 3 -k RTR
h -t 0.025066702 -s 22 -d -1 -p undefined -e 48 -c 2 -a 0 -i 3 -k RTR
+ -t 0.025361702 -s 22 -d -1 -p undefined -e 106 -c 2 -a 0 -i 3 -k MAC 
- -t 0.025361702 -s 22 -d -1 -p undefined -e 106 -c 2 -a 0 -i 3 -k MAC
h -t 0.025361702 -s 22 -d -1 -p undefined -e 106 -c 2 -a 0 -i 3 -k MAC
r -t 0.026209869 -s 16 -d -1 -p undefined -e 48 -c 2 -a 0 -i 3 -k MAC
r -t 0.026209869 -s 21 -d -1 -p undefined -e 48 -c 2 -a 0 -i 3 -k MAC
r -t 0.026209869 -s 28 -d -1 -p undefined -e 48 -c 2 -a 0 -i 3 -k MAC
r -t 0.026209869 -s 23 -d -1 -p undefined -e 48 -c 2 -a 0 -i 3 -k MAC
r -t 0.026209938 -s 27 -d -1 -p undefined -e 48 -c 2 -a 0 -i 3 -k MAC
r -t 0.026209938 -s 15 -d -1 -p undefined -e 48 -c 2 -a 0 -i 3 -k MAC
r -t 0.026209938 -s 17 -d -1 -p undefined -e 48 -c 2 -a 0 -i 3 -k MAC
r -t 0.026209938 -s 29 -d -1 -p undefined -e 48 -c 2 -a 0 -i 3 -k MAC
r -t 0.026210036 -s 10 -d -1 -p undefined -e 48 -c 2 -a 0 -i 3 -k MAC
r -t 0.026210036 -s 20 -d -1 -p undefined -e 48 -c 2 -a 0 -i 3 -k MAC
r -t 0.026210075 -s 9 -d -1 -p undefined -e 48 -c 2 -a 0 -i 3 -k MAC
r -t 0.026210075 -s 26 -d -1 -p undefined -e 48 -c 2 -a 0 -i 3 -k MAC
r -t 0.026210075 -s 14 -d -1 -p undefined -e 48 -c 2 -a 0 -i 3 -k MAC
r -t 0.026210075 -s 11 -d -1 -p undefined -e 48 -c 2 -a 0 -i 3 -k MAC
r -t 0.026210174 -s 8 -d -1 -p undefined -e 48 -c 2 -a 0 -i 3 -k MAC
r -t 0.026210202 -s 4 -d -1 -p undefined -e 48 -c 2 -a 0 -i 3 -k MAC
r -t 0.026210202 -s 19 -d -1 -p undefined -e 48 -c 2 -a 0 -i 3 -k MAC
r -t 0.026210229 -s 3 -d -1 -p undefined -e 48 -c 2 -a 0 -i 3 -k MAC
r -t 0.026210229 -s 25 -d -1 -p undefined -e 48 -c 2 -a 0 -i 3 -k MAC
r -t 0.026210229 -s 13 -d -1 -p undefined -e 48 -c 2 -a 0 -i 3 -k MAC
r -t 0.026210229 -s 5 -d -1 -p undefined -e 48 -c 2 -a 0 -i 3 -k MAC
r -t 0.026210303 -s 2 -d -1 -p undefined -e 48 -c 2 -a 0 -i 3 -k MAC
r -t 0.026210303 -s 7 -d -1 -p undefined -e 48 -c 2 -a 0 -i 3 -k MAC
r -t 0.026210369 -s 18 -d -1 -p undefined -e 48 -c 2 -a 0 -i 3 -k MAC
r -t 0.026210390 -s 24 -d -1 -p undefined -e 48 -c 2 -a 0 -i 3 -k MAC
r -t 0.026210390 -s 12 -d -1 -p undefined -e 48 -c 2 -a 0 -i 3 -k MAC
r -t 0.026210410 -s 1 -d -1 -p undefined -e 48 -c 2 -a 0 -i 3 -k MAC
r -t 0.026210448 -s 6 -d -1 -p undefined -e 48 -c 2 -a 0 -i 3 -k MAC
r -t 0.026210536 -s 0 -d -1 -p undefined -e 48 -c 2 -a 0 -i 3 -k MAC
r -t 0.026234869 -s 16 -d -1 -p undefined -e 48 -c 2 -a 0 -i 3 -k RTR
r -t 0.026234869 -s 21 -d -1 -p undefined -e 48 -c 2 -a 0 -i 3 -k RTR
r -t 0.026234869 -s 28 -d -1 -p undefined -e 48 -c 2 -a 0 -i 3 -k RTR
r -t 0.026234869 -s 23 -d -1 -p undefined -e 48 -c 2 -a 0 -i 3 -k RTR
r -t 0.026234938 -s 27 -d -1 -p undefined -e 48 -c 2 -a 0 -i 3 -k RTR
r -t 0.026234938 -s 15 -d -1 -p undefined -e 48 -c 2 -a 0 -i 3 -k RTR
r -t 0.026234938 -s 17 -d -1 -p undefined -e 48 -c 2 -a 0 -i 3 -k RTR
r -t 0.026234938 -s 29 -d -1 -p undefined -e 48 -c 2 -a 0 -i 3 -k RTR
r -t 0.026235036 -s 10 -d -1 -p undefined -e 48 -c 2 -a 0 -i 3 -k RTR
r -t 0.026235036 -s 20 -d -1 -p undefined -e 48 -c 2 -a 0 -i 3 -k RTR
r -t 0.026235075 -s 9 -d -1 -p undefined -e 48 -c 2 -a 0 -i 3 -k RTR
r -t 0.026235075 -s 26 -d -1 -p undefined -e 48 -c 2 -a 0 -i 3 -k RTR
r -t 0.026235075 -s 14 -d -1 -p undefined -e 48 -c 2 -a 0 -i 3 -k RTR
r -t 0.026235075 -s 11 -d -1 -p undefined -e 48 -c 2 -a 0 -i 3 -k RTR
r -t 0.026235174 -s 8 -d -1 -p undefined -e 48 -c 2 -a 0 -i 3 -k RTR
r -t 0.026235202 -s 4 -d -1 -p undefined -e 48 -c 2 -a 0 -i 3 -k RTR
r -t 0.026235202 -s 19 -d -1 -p undefined -e 48 -c 2 -a 0 -i 3 -k RTR
r -t 0.026235229 -s 3 -d -1 -p undefined -e 48 -c 2 -a 0 -i 3 -k RTR
r -t 0.026235229 -s 25 -d -1 -p undefined -e 48 -c 2 -a 0 -i 3 -k RTR
r -t 0.026235229 -s 13 -d -1 -p undefined -e 48 -c 2 -a 0 -i 3 -k RTR
r -t 0.026235229 -s 5 -d -1 -p undefined -e 48 -c 2 -a 0 -i 3 -k RTR
r -t 0.026235303 -s 2 -d -1 -p undefined -e 48 -c 2 -a 0 -i 3 -k RTR
r -t 0.026235303 -s 7 -d -1 -p undefined -e 48 -c 2 -a 0 -i 3 -k RTR
r -t 0.026235369 -s 18 -d -1 -p undefined -e 48 -c 2 -a 0 -i 3 -k RTR
r -t 0.026235390 -s 24 -d -1 -p undefined -e 48 -c 2 -a 0 -i 3 -k RTR
r -t 0.026235390 -s 12 -d -1 -p undefined -e 48 -c 2 -a 0 -i 3 -k RTR
r -t 0.026235410 -s 1 -d -1 -p undefined -e 48 -c 2 -a 0 -i 3 -k RTR
r -t 0.026235448 -s 6 -d -1 -p undefined -e 48 -c 2 -a 0 -i 3 -k RTR
r -t 0.026235536 -s 0 -d -1 -p undefined -e 48 -c 2 -a 0 -i 3 -k RTR
+ -t 0.061551748 -s 15 -d -1 -p undefined -e 48 -c 2 -a 0 -i 4 -k RTR 
- -t 0.061551748 -s 15 -d -1 -p undefined -e 48 -c 2 -a 0 -i 4 -k RTR
h -t 0.061551748 -s 15 -d -1 -p undefined -e 48 -c 2 -a 0 -i 4 -k RTR
+ -t 0.061766748 -s 15 -d -1 -p undefined -e 106 -c 2 -a 0 -i 4 -k MAC 
- -t 0.061766748 -s 15 -d -1 -p undefined -e 106 -c 2 -a 0 -i 4 -k MAC
h -t 0.061766748 -s 15 -d -1 -p undefined -e 106 -c 2 -a 0 -i 4 -k MAC
r -t 0.062614915 -s 9 -d -1 -p undefined -e 48 -c 2 -a 0 -i 4 -k MAC
r -t 0.062614915 -s 14 -d -1 -p undefined -e 48 -c 2 -a 0 -i 4 -k MAC
r -t 0.062614915 -s 21 -d -1 -p undefined -e 48 -c 2 -a 0 -i 4 -k MAC
r -t 0.062614915 -s 16 -d -1 -p undefined -e 48 -c 2 -a 0 -i 4 -k MAC
r -t 0.062614984 -s 20 -d -1 -p undefined -e 48 -c 2 -a 0 -i 4 -k MAC
r -t 0.062614984 -s 8 -d -1 -p undefined -e 48 -c 2 -a 0 -i 4 -k MAC
r -t 0.062614984 -s 10 -d -1 -p undefined -e 48 -c 2 -a 0 -i 4 -k MAC
r -t 0.062614984 -s 22 -d -1 -p undefined -e 48 -c 2 -a 0 -i 4 -k MAC
r -t 0.062615081 -s 3 -d -1 -p undefined -e 48 -c 2 -a 0 -i 4 -k MAC
r -t 0.062615081 -s 13 -d -1 -p undefined -e 48 -c 2 -a 0 -i 4 -k MAC
r -t 0.062615081 -s 27 -d -1 -p undefined -e 48 -c 2 -a 0 -i 4 -k MAC
r -t 0.062615081 -s 17 -d -1 -p undefined -e 48 -c 2 -a 0 -i 4 -k MAC
r -t 0.062615121 -s 26 -d -1 -p undefined -e 48 -c 2 -a 0 -i 4 -k MAC
r -t 0.062615121 -s 2 -d -1 -p undefined -e 48 -c 2 -a 0 -i 4 -k MAC
r -t 0.062615121 -s 19 -d -1 -p undefined -e 48 -c 2 -a 0 -i 4 -k MAC
r -t 0.062615121 -s 7 -d -1 -p undefined -e 48 -c 2 -a 0 -i 4 -k MAC
r -t 0.062615121 -s 4 -d -1 -p undefined -e 48 -c 2 -a 0 -i 4 -k MAC
r -t 0.062615121 -s 28 -d -1 -p undefined -e 48 -c 2 -a 0 -i 4 -k MAC
r -t 0.062615121 -s 11 -d -1 -p undefined -e 48 -c 2 -a 0 -i 4 -k MAC
r -t 0.062615121 -s 23 -d -1 -p undefined -e 48 -c 2 -a 0 -i 4 -k MAC
r -t 0.062615219 -s 25 -d -1 -p undefined -e 48 -c 2 -a 0 -i 4 -k MAC
r -t 0.062615219 -s 1 -d -1 -p undefined -e 48 -c 2 -a 0 -i 4 -k MAC
r -t 0.062615219 -s 5 -d -1 -p undefined -e 48 -c 2 -a 0 -i 4 -k MAC
r -t 0.062615219 -s 29 -d -1 -p undefined -e 48 -c 2 -a 0 -i 4 -k MAC
r -t 0.062615248 -s 12 -d -1 -p undefined -e 48 -c 2 -a 0 -i 4 -k MAC
r -t 0.062615275 -s 18 -d -1 -p undefined -e 48 -c 2 -a 0 -i 4 -k MAC
r -t 0.062615275 -s 6 -d -1 -p undefined -e 48 -c 2 -a 0 -i 4 -k MAC
r -t 0.062615349 -s 24 -d -1 -p undefined -e 48 -c 2 -a 0 -i 4 -k MAC
r -t 0.062615349 -s 0 -d -1 -p undefined -e 48 -c 2 -a 0 -i 4 -k MAC
r -t 0.062639915 -s 9 -d -1 -p undefined -e 48 -c 2 -a 0 -i 4 -k RTR
r -t 0.062639915 -s 14 -d -1 -p undefined -e 48 -c 2 -a 0 -i 4 -k RTR
r -t 0.062639915 -s 21 -d -1 -p undefined -e 48 -c 2 -a 0 -i 4 -k RTR
r -t 0.062639915 -s 16 -d -1 -p undefined -e 48 -c 2 -a 0 -i 4 -k RTR
r -t 0.062639984 -s 20 -d -1 -p undefined -e 48 -c 2 -a 0 -i 4 -k RTR
r -t 0.062639984 -s 8 -d -1 -p undefined -e 48 -c 2 -a 0 -i 4 -k RTR
r -t 0.062639984 -s 10 -d -1 -p undefined -e 48 -c 2 -a 0 -i 4 -k RTR
r -t 0.062639984 -s 22 -d -1 -p undefined -e 48 -c 2 -a 0 -i 4 -k RTR
r -t 0.062640081 -s 3 -d -1 -p undefined -e 48 -c 2 -a 0 -i 4 -k RTR
r -t 0.062640081 -s 13 -d -1 -p undefined -e 48 -c 2 -a 0 -i 4 -k RTR
r -t 0.062640081 -s 27 -d -1 -p undefined -e 48 -c 2 -a 0 -i 4 -k RTR
r -t 0.062640081 -s 17 -d -1 -p undefined -e 48 -c 2 -a 0 -i 4 -k RTR
r -t 0.062640121 -s 26 -d -1 -p undefined -e 48 -c 2 -a 0 -i 4 -k RTR
r -t 0.062640121 -s 2 -d -1 -p undefined -e 48 -c 2 -a 0 -i 4 -k RTR
r -t 0.062640121 -s 19 -d -1 -p undefined -e 48 -c 2 -a 0 -i 4 -k RTR
r -t 0.062640121 -s 7 -d -1 -p undefined -e 48 -c 2 -a 0 -i 4 -k RTR
r -t 0.062640121 -s 4 -d -1 -p undefined -e 48 -c 2 -a 0 -i 4 -k RTR
r -t 0.062640121 -s 28 -d -1 -p undefined -e 48 -c 2 -a 0 -i 4 -k RTR
r -t 0.062640121 -s 11 -d -1 -p undefined -e 48 -c 2 -a 0 -i 4 -k RTR
r -t 0.062640121 -s 23 -d -1 -p undefined -e 48 -c 2 -a 0 -i 4 -k RTR
r -t 0.062640219 -s 25 -d -1 -p undefined -e 48 -c 2 -a 0 -i 4 -k RTR
r -t 0.062640219 -s 1 -d -1 -p undefined -e 48 -c 2 -a 0 -i 4 -k RTR
r -t 0.062640219 -s 5 -d -1 -p undefined -e 48 -c 2 -a 0 -i 4 -k RTR
r -t 0.062640219 -s 29 -d -1 -p undefined -e 48 -c 2 -a 0 -i 4 -k RTR
r -t 0.062640248 -s 12 -d -1 -p undefined -e 48 -c 2 -a 0 -i 4 -k RTR
r -t 0.062640275 -s 18 -d -1 -p undefined -e 48 -c 2 -a 0 -i 4 -k RTR
r -t 0.062640275 -s 6 -d -1 -p undefined -e 48 -c 2 -a 0 -i 4 -k RTR
r -t 0.062640349 -s 24 -d -1 -p undefined -e 48 -c 2 -a 0 -i 4 -k RTR
r -t 0.062640349 -s 0 -d -1 -p undefined -e 48 -c 2 -a 0 -i 4 -k RTR
+ -t 0.074994216 -s 28 -d -1 -p undefined -e 48 -c 2 -a 0 -i 5 -k RTR 
- -t 0.074994216 -s 28 -d -1 -p undefined -e 48 -c 2 -a 0 -i 5 -k RTR
h -t 0.074994216 -s 28 -d -1 -p undefined -e 48 -c 2 -a 0 -i 5 -k RTR
+ -t 0.075389216 -s 28 -d -1 -p undefined -e 106 -c 2 -a 0 -i 5 -k MAC 
- -t 0.075389216 -s 28 -d -1 -p undefined -e 106 -c 2 -a 0 -i 5 -k MAC
h -t 0.075389216 -s 28 -d -1 -p undefined -e 106 -c 2 -a 0 -i 5 -k MAC
r -t 0.076237382 -s 22 -d -1 -p undefined -e 48 -c 2 -a 0 -i 5 -k MAC
r -t 0.076237382 -s 27 -d -1 -p undefined -e 48 -c 2 -a 0 -i 5 -k MAC
r -t 0.076237382 -s 29 -d -1 -p undefined -e 48 -c 2 -a 0 -i 5 -k MAC
r -t 0.076237451 -s 21 -d -1 -p undefined -e 48 -c 2 -a 0 -i 5 -k MAC
r -t 0.076237451 -s 23 -d -1 -p undefined -e 48 -c 2 -a 0 -i 5 -k MAC
r -t 0.076237549 -s 16 -d -1 -p undefined -e 48 -c 2 -a 0 -i 5 -k MAC
r -t 0.076237549 -s 26 -d -1 -p undefined -e 48 -c 2 -a 0 -i 5 -k MAC
r -t 0.076237588 -s 15 -d -1 -p undefined -e 48 -c 2 -a 0 -i 5 -k MAC
r -t 0.076237588 -s 20 -d -1 -p undefined -e 48 -c 2 -a 0 -i 5 -k MAC
r -t 0.076237588 -s 17 -d -1 -p undefined -e 48 -c 2 -a 0 -i 5 -k MAC
r -t 0.076237687 -s 14 -d -1 -p undefined -e 48 -c 2 -a 0 -i 5 -k MAC
r -t 0.076237716 -s 10 -d -1 -p undefined -e 48 -c 2 -a 0 -i 5 -k MAC
r -t 0.076237716 -s 25 -d -1 -p undefined -e 48 -c 2 -a 0 -i 5 -k MAC
r -t 0.076237743 -s 9 -d -1 -p undefined -e 48 -c 2 -a 0 -i 5 -k MAC
r -t 0.076237743 -s 19 -d -1 -p undefined -e 48 -c 2 -a 0 -i 5 -k MAC
r -t 0.076237743 -s 11 -d -1 -p undefined -e 48 -c 2 -a 0 -i 5 -k MAC
r -t 0.076237816 -s 8 -d -1 -p undefined -e 48 -c 2 -a 0 -i 5 -k MAC
r -t 0.076237816 -s 13 -d -1 -p undefined -e 48 -c 2 -a 0 -i 5 -k MAC
r -t 0.076237882 -s 4 -d -1 -p undefined -e 48 -c 2 -a 0 -i 5 -k MAC
r -t 0.076237882 -s 24 -d -1 -p undefined -e 48 -c 2 -a 0 -i 5 -k MAC
r -t 0.076237903 -s 3 -d -1 -p undefined -e 48 -c 2 -a 0 -i 5 -k MAC
r -t 0.076237903 -s 18 -d -1 -p undefined -e 48 -c 2 -a 0 -i 5 -k MAC
r -t 0.076237903 -s 5 -d -1 -p undefined -e 48 -c 2 -a 0 -i 5 -k MAC
r -t 0.076237923 -s 7 -d -1 -p undefined -e 48 -c 2 -a 0 -i 5 -k MAC
r -t 0.076237961 -s 2 -d -1 -p undefined -e 48 -c 2 -a 0 -i 5 -k MAC
r -t 0.076237961 -s 12 -d -1 -p undefined -e 48 -c 2 -a 0 -i 5 -k MAC
r -t 0.076238049 -s 1 -d -1 -p undefined -e 48 -c 2 -a 0 -i 5 -k MAC
r -t 0.076238049 -s 6 -d -1 -p undefined -e 48 -c 2 -a 0 -i 5 -k MAC
r -t 0.076262382 -s 22 -d -1 -p undefined -e 48 -c 2 -a 0 -i 5 -k RTR
r -t 0.076262382 -s 27 -d -1 -p undefined -e 48 -c 2 -a 0 -i 5 -k RTR
r -t 0.076262382 -s 29 -d -1 -p undefined -e 48 -c 2 -a 0 -i 5 -k RTR
r -t 0.076262451 -s 21 -d -1 -p undefined -e 48 -c 2 -a 0 -i 5 -k RTR
r -t 0.076262451 -s 23 -d -1 -p undefined -e 48 -c 2 -a 0 -i 5 -k RTR
r -t 0.076262549 -s 16 -d -1 -p undefined -e 48 -c 2 -a 0 -i 5 -k RTR
r -t 0.076262549 -s 26 -d -1 -p undefined -e 48 -c 2 -a 0 -i 5 -k RTR
r -t 0.076262588 -s 15 -d -1 -p undefined -e 48 -c 2 -a 0 -i 5 -k RTR
r -t 0.076262588 -s 20 -d -1 -p undefined -e 48 -c 2 -a 0 -i 5 -k RTR
r -t 0.076262588 -s 17 -d -1 -p undefined -e 48 -c 2 -a 0 -i 5 -k RTR
r -t 0.076262687 -s 14 -d -1 -p undefined -e 48 -c 2 -a 0 -i 5 -k RTR
r -t 0.076262716 -s 10 -d -1 -p undefined -e 48 -c 2 -a 0 -i 5 -k RTR
r -t 0.076262716 -s 25 -d -1 -p undefined -e 48 -c 2 -a 0 -i 5 -k RTR
r -t 0.076262743 -s 9 -d -1 -p undefined -e 48 -c 2 -a 0 -i 5 -k RTR
r -t 0.076262743 -s 19 -d -1 -p undefined -e 48 -c 2 -a 0 -i 5 -k RTR
r -t 0.076262743 -s 11 -d -1 -p undefined -e 48 -c 2 -a 0 -i 5 -k RTR
r -t 0.076262816 -s 8 -d -1 -p undefined -e 48 -c 2 -a 0 -i 5 -k RTR
r -t 0.076262816 -s 13 -d -1 -p undefined -e 48 -c 2 -a 0 -i 5 -k RTR
r -t 0.076262882 -s 4 -d -1 -p undefined -e 48 -c 2 -a 0 -i 5 -k RTR
r -t 0.076262882 -s 24 -d -1 -p undefined -e 48 -c 2 -a 0 -i 5 -k RTR
r -t 0.076262903 -s 3 -d -1 -p undefined -e 48 -c 2 -a 0 -i 5 -k RTR
r -t 0.076262903 -s 18 -d -1 -p undefined -e 48 -c 2 -a 0 -i 5 -k RTR
r -t 0.076262903 -s 5 -d -1 -p undefined -e 48 -c 2 -a 0 -i 5 -k RTR
r -t 0.076262923 -s 7 -d -1 -p undefined -e 48 -c 2 -a 0 -i 5 -k RTR
r -t 0.076262961 -s 2 -d -1 -p undefined -e 48 -c 2 -a 0 -i 5 -k RTR
r -t 0.076262961 -s 12 -d -1 -p undefined -e 48 -c 2 -a 0 -i 5 -k RTR
r -t 0.076263049 -s 1 -d -1 -p undefined -e 48 -c 2 -a 0 -i 5 -k RTR
r -t 0.076263049 -s 6 -d -1 -p undefined -e 48 -c 2 -a 0 -i 5 -k RTR
+ -t 0.093682621 -s 12 -d -1 -p undefined -e 48 -c 2 -a 0 -i 6 -k RTR 
- -t 0.093682621 -s 12 -d -1 -p undefined -e 48 -c 2 -a 0 -i 6 -k RTR
h -t 0.093682621 -s 12 -d -1 -p undefined -e 48 -c 2 -a 0 -i 6 -k RTR
+ -t 0.094257621 -s 12 -d -1 -p undefined -e 106 -c 2 -a 0 -i 6 -k MAC 
- -t 0.094257621 -s 12 -d -1 -p undefined -e 106 -c 2 -a 0 -i 6 -k MAC
h -t 0.094257621 -s 12 -d -1 -p undefined -e 106 -c 2 -a 0 -i 6 -k MAC
r -t 0.095105788 -s 6 -d -1 -p undefined -e 48 -c 2 -a 0 -i 6 -k MAC
r -t 0.095105788 -s 18 -d -1 -p undefined -e 48 -c 2 -a 0 -i 6 -k MAC
r -t 0.095105788 -s 13 -d -1 -p undefined -e 48 -c 2 -a 0 -i 6 -k MAC
r -t 0.095105857 -s 7 -d -1 -p undefined -e 48 -c 2 -a 0 -i 6 -k MAC
r -t 0.095105857 -s 19 -d -1 -p undefined -e 48 -c 2 -a 0 -i 6 -k MAC
r -t 0.095105954 -s 0 -d -1 -p undefined -e 48 -c 2 -a 0 -i 6 -k MAC
r -t 0.095105954 -s 24 -d -1 -p undefined -e 48 -c 2 -a 0 -i 6 -k MAC
r -t 0.095105954 -s 14 -d -1 -p undefined -e 48 -c 2 -a 0 -i 6 -k MAC
r -t 0.095105994 -s 1 -d -1 -p undefined -e 48 -c 2 -a 0 -i 6 -k MAC
r -t 0.095105994 -s 25 -d -1 -p undefined -e 48 -c 2 -a 0 -i 6 -k MAC
r -t 0.095105994 -s 8 -d -1 -p undefined -e 48 -c 2 -a 0 -i 6 -k MAC
r -t 0.095105994 -s 20 -d -1 -p undefined -e 48 -c 2 -a 0 -i 6 -k MAC
r -t 0.095106092 -s 2 -d -1 -p undefined -e 48 -c 2 -a 0 -i 6 -k MAC
r -t 0.095106092 -s 26 -d -1 -p undefined -e 48 -c 2 -a 0 -i 6 -k MAC
r -t 0.095106121 -s 15 -d -1 -p undefined -e 48 -c 2 -a 0 -i 6 -k MAC
r -t 0.095106148 -s 9 -d -1 -p undefined -e 48 -c 2 -a 0 -i 6 -k MAC
r -t 0.095106148 -s 21 -d -1 -p undefined -e 48 -c 2 -a 0 -i 6 -k MAC
r -t 0.095106222 -s 3 -d -1 -p undefined -e 48 -c 2 -a 0 -i 6 -k MAC
r -t 0.095106222 -s 27 -d -1 -p undefined -e 48 -c 2 -a 0 -i 6 -k MAC
r -t 0.095106288 -s 16 -d -1 -p undefined -e 48 -c 2 -a 0 -i 6 -k MAC
r -t 0.095106308 -s 10 -d -1 -p undefined -e 48 -c 2 -a 0 -i 6 -k MAC
r -t 0.095106308 -s 22 -d -1 -p undefined -e 48 -c 2 -a 0 -i 6 -k MAC
r -t 0.095106366 -s 4 -d -1 -p undefined -e 48 -c 2 -a 0 -i 6 -k MAC
r -t 0.095106366 -s 28 -d -1 -p undefined -e 48 -c 2 -a 0 -i 6 -k MAC
r -t 0.095106454 -s 17 -d -1 -p undefined -e 48 -c 2 -a 0 -i 6 -k MAC
r -t 0.095130788 -s 6 -d -1 -p undefined -e 48 -c 2 -a 0 -i 6 -k RTR
r -t 0.095130788 -s 18 -d -1 -p undefined -e 48 -c 2 -a 0 -i 6 -k RTR
r -t 0.095130788 -s 13 -d -1 -p undefined -e 48 -c 2 -a 0 -i 6 -k RTR
r -t 0.095130857 -s 7 -d -1 -p undefined -e 48 -c 2 -a 0 -i 6 -k RTR
r -t 0.095130857 -s 19 -d -1 -p undefined -e 48 -c 2 -a 0 -i 6 -k RTR
r -t 0.095130954 -s 0 -d -1 -p undefined -e 48 -c 2 -a 0 -i 6 -k RTR
r -t 0.095130954 -s 24 -d -1 -p undefined -e 48 -c 2 -a 0 -i 6 -k RTR
r -t 0.095130954 -s 14 -d -1 -p undefined -e 48 -c 2 -a 0 -i 6 -k RTR