s -t 0.007102330 -Hs 0 -Hd -1 -Ni 0 -Nx 289.00 -Ny 394.00 -Nz 0.00 -Ne -1.000000 -Nl RTR -Nw --- -Ma 0 -Md 0 -Ms 0 -Mt 0 -Is 0.255 -Id -1.255 -It undefined -Il 48 -If 0 -Ii 0 -Iv 32 -P olsr -Pn 1 -Ps 0 [-Pt HELLO -Po 0 -Ph 0 -Pms 0] 
s -t 0.007477330 -Hs 0 -Hd -1 -Ni 0 -Nx 289.00 -Ny 394.00 -Nz 0.00 -Ne -1.000000 -Nl MAC -Nw --- -Ma 0 -Md ffffffff -Ms 0 -Mt 800 -Is 0.255 -Id -1.255 -It undefined -Il 106 -If 0 -Ii 0 -Iv 32 -P olsr -Pn 1 -Ps 0 [-Pt HELLO -Po 0 -Ph 0 -Pms 0] 
r -t 0.008325497 -Hs 5 -Hd -1 -Ni 5 -Nx 289.00 -Ny 344.00 -Nz 0.00 -Ne -1.000000 -Nl MAC -Nw --- -Ma 0 -Md ffffffff -Ms 0 -Mt 800 -Is 0.255 -Id -1.255 -It undefined -Il 48 -If 0 -Ii 0 -Iv 32 -P olsr -Pn 1 -Ps 0 [-Pt HELLO -Po 0 -Ph 0 -Pms 0] 
r -t 0.008325497 -Hs 1 -Hd -1 -Ni 1 -Nx 339.00 -Ny 394.00 -Nz 0.00 -Ne -1.000000 -Nl MAC -Nw --- -Ma 0 -Md ffffffff -Ms 0 -Mt 800 -Is 0.255 -Id -1.255 -It undefined -Il 48 -If 0 -Ii 0 -Iv 32 -P olsr -Pn 1 -Ps 0 [-Pt HELLO -Po 0 -Ph 0 -Pms 0] 
r -t 0.008325566 -Hs 6 -Hd -1 -Ni 6 -Nx 339.00 -Ny 344.00 -Nz 0.00 -Ne -1.000000 -Nl MAC -Nw --- -Ma 0 -Md ffffffff -Ms 0 -Mt 800 -Is 0.255 -Id -1.255 -It undefined -Il 48 -If 0 -Ii 0 -Iv 32 -P olsr -Pn 1 -Ps 0 [-Pt HELLO -Po 0 -Ph 0 -Pms 0] 
r -t 0.008325664 -Hs 2 -Hd -1 -Ni 2 -Nx 389.00 -Ny 394.00 -Nz 0.00 -Ne -1.000000 -Nl MAC -Nw --- -Ma 0 -Md ffffffff -Ms 0 -Mt 800 -Is 0.255 -Id -1.255 -It undefined -Il 48 -If 0 -Ii 0 -Iv 32 -P olsr -Pn 1 -Ps 0 [-Pt HELLO -Po 0 -Ph 0 -Pms 0] 
r -t 0.008325703 -Hs 7 -Hd -1 -Ni 7 -Nx 389.00 -Ny 344.00 -Nz 0.00 -Ne -1.000000 -Nl MAC -Nw --- -Ma 0 -Md ffffffff -Ms 0 -Mt 800 -Is 0.255 -Id -1.255 -It undefined -Il 48 -If 0 -Ii 0 -Iv 32 -P olsr -Pn 1 -Ps 0 [-Pt HELLO -Po 0 -Ph 0 -Pms 0] 
r -t 0.008325830 -Hs 3 -Hd -1 -Ni 3 -Nx 439.00 -Ny 394.00 -Nz 0.00 -Ne -1.000000 -Nl MAC -Nw --- -Ma 0 -Md ffffffff -Ms 0 -Mt 800 -Is 0.255 -Id -1.255 -It undefined -Il 48 -If 0 -Ii 0 -Iv 32 -P olsr -Pn 1 -Ps 0 [-Pt HELLO -Po 0 -Ph 0 -Pms 0] 
r -t 0.008325857 -Hs 8 -Hd -1 -Ni 8 -Nx 439.00 -Ny 344.00 -Nz 0.00 -Ne -1.000000 -Nl MAC -Nw --- -Ma 0 -Md ffffffff -Ms 0 -Mt 800 -Is 0.255 -Id -1.255 -It undefined -Il 48 -If 0 -Ii 0 -Iv 32 -P olsr -Pn 1 -Ps 0 [-Pt HELLO -Po 0 -Ph 0 -Pms 0] 
r -t 0.008325997 -Hs 4 -Hd -1 -Ni 4 -Nx 489.00 -Ny 394.00 -Nz 0.00 -Ne -1.000000 -Nl MAC -Nw --- -Ma 0 -Md ffffffff -Ms 0 -Mt 800 -Is 0.255 -Id -1.255 -It undefined -Il 48 -If 0 -Ii 0 -Iv 32 -P olsr -Pn 1 -Ps 0 [-Pt HELLO -Po 0 -Ph 0 -Pms 0] 
r -t 0.008326018 -Hs 9 -Hd -1 -Ni 9 -Nx 489.00 -Ny 344.00 -Nz 0.00 -Ne -1.000000 -Nl MAC -Nw --- -Ma 0 -Md ffffffff -Ms 0 -Mt 800 -Is 0.255 -Id -1.255 -It undefined -Il 48 -If 0 -Ii 0 -Iv 32 -P olsr -Pn 1 -Ps 0 [-Pt HELLO -Po 0 -Ph 0 -Pms 0] 
r -t 0.008350497 -Hs 5 -Hd -1 -Ni 5 -Nx 289.00 -Ny 344.00 -Nz 0.00 -Ne -1.000000 -Nl RTR -Nw --- -Ma 0 -Md ffffffff -Ms 0 -Mt 800 -Is 0.255 -Id -1.255 -It undefined -Il 48 -If 0 -Ii 0 -Iv 32 -P olsr -Pn 1 -Ps 0 [-Pt HELLO -Po 0 -Ph 0 -Pms 0] 
r -t 0.008350497 -Hs 1 -Hd -1 -Ni 1 -Nx 339.00 -Ny 394.00 -Nz 0.00 -Ne -1.000000 -Nl RTR -Nw --- -Ma 0 -Md ffffffff -Ms 0 -Mt 800 -Is 0.255 -Id -1.255 -It undefined -Il 48 -If 0 -Ii 0 -Iv 32 -P olsr -Pn 1 -Ps 0 [-Pt HELLO -Po 0 -Ph 0 -Pms 0] 
r -t 0.008350566 -Hs 6 -Hd -1 -Ni 6 -Nx 339.00 -Ny 344.00 -Nz 0.00 -Ne -1.000000 -Nl RTR -Nw --- -Ma 0 -Md ffffffff -Ms 0 -Mt 800 -Is 0.255 -Id -1.255 -It undefined -Il 48 -If 0 -Ii 0 -Iv 32 -P olsr -Pn 1 -Ps 0 [-Pt HELLO -Po 0 -Ph 0 -Pms 0] 
r -t 0.008350664 -Hs 2 -Hd -1 -Ni 2 -Nx 389.00 -Ny 394.00 -Nz 0.00 -Ne -1.000000 -Nl RTR -Nw --- -Ma 0 -Md ffffffff -Ms 0 -Mt 800 -Is 0.255 -Id -1.255 -It undefined -Il 48 -If 0 -Ii 0 -Iv 32 -P olsr -Pn 1 -Ps 0 [-Pt HELLO -Po 0 -Ph 0 -Pms 0] 
r -t 0.008350703 -Hs 7 -Hd -1 -Ni 7 -Nx 389.00 -Ny 344.00 -Nz 0.00 -Ne -1.000000 -Nl RTR -Nw --- -Ma 0 -Md ffffffff -Ms 0 -Mt 800 -Is 0.255 -Id -1.255 -It undefined -Il 48 -If 0 -Ii 0 -Iv 32 -P olsr -Pn 1 -Ps 0 [-Pt HELLO -Po 0 -Ph 0 -Pms 0] 
r -t 0.008350830 -Hs 3 -Hd -1 -Ni 3 -Nx 439.00 -Ny 394.00 -Nz 0.00 -Ne -1.000000 -Nl RTR -Nw --- -Ma 0 -Md ffffffff -Ms 0 -Mt 800 -Is 0.255 -Id -1.255 -It undefined -Il 48 -If 0 -Ii 0 -Iv 32 -P olsr -Pn 1 -Ps 0 [-Pt HELLO -Po 0 -Ph 0 -Pms 0] 
r -t 0.008350857 -Hs 8 -Hd -1 -Ni 8 -Nx 439.00 -Ny 344.00 -Nz 0.00 -Ne -1.000000 -Nl RTR -Nw --- -Ma 0 -Md ffffffff -Ms 0 -Mt 800 -Is 0.255 -Id -1.255 -It undefined -Il 48 -If 0 -Ii 0 -Iv 32 -P olsr -Pn 1 -Ps 0 [-Pt HELLO -Po 0 -Ph 0 -Pms 0] 
r -t 0.008350997 -Hs 4 -Hd -1 -Ni 4 -Nx 489.00 -Ny 394.00 -Nz 0.00 -Ne -1.000000 -Nl RTR -Nw --- -Ma 0 -Md ffffffff -Ms 0 -Mt 800 -Is 0.255 -Id -1.255 -It undefined -Il 48 -If 0 -Ii 0 -Iv 32 -P olsr -Pn 1 -Ps 0 [-Pt HELLO -Po 0 -Ph 0 -Pms 0] 
r -t 0.008351018 -Hs 9 -Hd -1 -Ni 9 -Nx 489.00 -Ny 344.00 -Nz 0.00 -Ne -1.000000 -Nl RTR -Nw --- -Ma 0 -Md ffffffff -Ms 0 -Mt 800 -Is 0.255 -Id -1.255 -It undefined -Il 48 -If 0 -Ii 0 -Iv 32 -P olsr -Pn 1 -Ps 0 [-Pt HELLO -Po 0 -Ph 0 -Pms 0] 
s -t 0.108579730 -Hs 9 -Hd -1 -Ni 9 -Nx 489.00 -Ny 344.00 -Nz 0.00 -Ne -1.000000 -Nl RTR -Nw --- -Ma 0 -Md 0 -Ms 0 -Mt 0 -Is 9.255 -Id -1.255 -It undefined -Il 48 -If 0 -Ii 1 -Iv 32 -P olsr -Pn 1 -Ps 0 [-Pt HELLO -Po 9 -Ph 0 -Pms 0] 
s -t 0.108794730 -Hs 9 -Hd -1 -Ni 9 -Nx 489.00 -Ny 344.00 -Nz 0.00 -Ne -1.000000 -Nl MAC -Nw --- -Ma 0 -Md ffffffff -Ms 9 -Mt 800 -Is 9.255 -Id -1.255 -It undefined -Il 106 -If 0 -Ii 1 -Iv 32 -P olsr -Pn 1 -Ps 0 [-Pt HELLO -Po 9 -Ph 0 -Pms 0] 
r -t 0.109642896 -Hs 4 -Hd -1 -Ni 4 -Nx 489.00 -Ny 394.00 -Nz 0.00 -Ne -1.000000 -Nl MAC -Nw --- -Ma 0 -Md ffffffff -Ms 9 -Mt 800 -Is 9.255 -Id -1.255 -It undefined -Il 48 -If 0 -Ii 1 -Iv 32 -P olsr -Pn 1 -Ps 0 [-Pt HELLO -Po 9 -Ph 0 -Pms 0] 
r -t 0.109642896 -Hs 8 -Hd -1 -Ni 8 -Nx 439.00 -Ny 344.00 -Nz 0.00 -Ne -1.000000 -Nl MAC -Nw --- -Ma 0 -Md ffffffff -Ms 9 -Mt 800 -Is 9.255 -Id -1.255 -It undefined -Il 48 -If 0 -Ii 1 -Iv 32 -P olsr -Pn 1 -Ps 0 [-Pt HELLO -Po 9 -Ph 0 -Pms 0] 
r -t 0.109642965 -Hs 3 -Hd -1 -Ni 3 -Nx 439.00 -Ny 394.00 -Nz 0.00 -Ne -1.000000 -Nl MAC -Nw --- -Ma 0 -Md ffffffff -Ms 9 -Mt 800 -Is 9.255 -Id -1.255 -It undefined -Il 48 -If 0 -Ii 1 -Iv 32 -P olsr -Pn 1 -Ps 0 [-Pt HELLO -Po 9 -Ph 0 -Pms 0] 
r -t 0.109643063 -Hs 7 -Hd -1 -Ni 7 -Nx 389.00 -Ny 344.00 -Nz 0.00 -Ne -1.000000 -Nl MAC -Nw --- -Ma 0 -Md ffffffff -Ms 9 -Mt 800 -Is 9.255 -Id -1.255 -It undefined -Il 48 -If 0 -Ii 1 -Iv 32 -P olsr -Pn 1 -Ps 0 [-Pt HELLO -Po 9 -Ph 0 -Pms 0] 
r -t 0.109643102 -Hs 2 -Hd -1 -Ni 2 -Nx 389.00 -Ny 394.00 -Nz 0.00 -Ne -1.000000 -Nl MAC -Nw --- -Ma 0 -Md ffffffff -Ms 9 -Mt 800 -Is 9.255 -Id -1.255 -It undefined -Il 48 -If 0 -Ii 1 -Iv 32 -P olsr -Pn 1 -Ps 0 [-Pt HELLO -Po 9 -Ph 0 -Pms 0] 
r -t 0.109643230 -Hs 6 -Hd -1 -Ni 6 -Nx 339.00 -Ny 344.00 -Nz 0.00 -Ne -1.000000 -Nl MAC -Nw --- -Ma 0 -Md ffffffff -Ms 9 -Mt 800 -Is 9.255 -Id -1.255 -It undefined -Il 48 -If 0 -Ii 1 -Iv 32 -P olsr -Pn 1 -Ps 0 [-Pt HELLO -Po 9 -Ph 0 -Pms 0] 
r -t 0.109643257 -Hs 1 -Hd -1 -Ni 1 -Nx 339.00 -Ny 394.00 -Nz 0.00 -Ne -1.000000 -Nl MAC -Nw --- -Ma 0 -Md ffffffff -Ms 9 -Mt 800 -Is 9.255 -Id -1.255 -It undefined -Il 48 -If 0 -Ii 1 -Iv 32 -P olsr -Pn 1 -Ps 0 [-Pt HELLO -Po 9 -Ph 0 -Pms 0] 
r -t 0.109643396 -Hs 5 -Hd -1 -Ni 5 -Nx 289.00 -Ny 344.00 -Nz 0.00 -Ne -1.000000 -Nl MAC -Nw --- -Ma 0 -Md ffffffff -Ms 9 -Mt 800 -Is 9.255 -Id -1.255 -It undefined -Il 48 -If 0 -Ii 1 -Iv 32 -P olsr -Pn 1 -Ps 0 [-Pt HELLO -Po 9 -Ph 0 -Pms 0] 
r -t 0.109643417 -Hs 0 -Hd -1 -Ni 0 -Nx 289.00 -Ny 394.00 -Nz 0.00 -Ne -1.000000 -Nl MAC -Nw --- -Ma 0 -Md ffffffff -Ms 9 -Mt 800 -Is 9.255 -Id -1.255 -It undefined -Il 48 -If 0 -Ii 1 -Iv 32 -P olsr -Pn 1 -Ps 0 [-Pt HELLO -Po 9 -Ph 0 -Pms 0] 
r -t 0.109667896 -Hs 4 -Hd -1 -Ni 4 -Nx 489.00 -Ny 394.00 -Nz 0.00 -Ne -1.000000 -Nl RTR -Nw --- -Ma 0 -Md ffffffff -Ms 9 -Mt 800 -Is 9.255 -Id -1.255 -It undefined -Il 48 -If 0 -Ii 1 -Iv 32 -P olsr -Pn 1 -Ps 0 [-Pt HELLO -Po 9 -Ph 0 -Pms 0] 
r -t 0.109667896 -Hs 8 -Hd -1 -Ni 8 -Nx 439.00 -Ny 344.00 -Nz 0.00 -Ne -1.000000 -Nl RTR -Nw --- -Ma 0 -Md ffffffff -Ms 9 -Mt 800 -Is 9.255 -Id -1.255 -It undefined -Il 48 -If 0 -Ii 1 -Iv 32 -P olsr -Pn 1 -Ps 0 [-Pt HELLO -Po 9 -Ph 0 -Pms 0] 
r -t 0.109667965 -Hs 3 -Hd -1 -Ni 3 -Nx 439.00 -Ny 394.00 -Nz 0.00 -Ne -1.000000 -Nl RTR -Nw --- -Ma 0 -Md ffffffff -Ms 9 -Mt 800 -Is 9.255 -Id -1.255 -It undefined -Il 48 -If 0 -Ii 1 -Iv 32 -P olsr -Pn 1 -Ps 0 [-Pt HELLO -Po 9 -Ph 0 -Pms 0] 
r -t 0.109668063 -Hs 7 -Hd -1 -Ni 7 -Nx 389.00 -Ny 344.00 -Nz 0.00 -Ne -1.000000 -Nl RTR -Nw --- -Ma 0 -Md ffffffff -Ms 9 -Mt 800 -Is 9.255 -Id -1.255 -It undefined -Il 48 -If 0 -Ii 1 -Iv 32 -P olsr -Pn 1 -Ps 0 [-Pt HELLO -Po 9 -Ph 0 -Pms 0] 
r -t 0.109668102 -Hs 2 -Hd -1 -Ni 2 -Nx 389.00 -Ny 394.00 -Nz 0.00 -Ne -1.000000 -Nl RTR -Nw --- -Ma 0 -Md ffffffff -Ms 9 -Mt 800 -Is 9.255 -Id -1.255 -It undefined -Il 48 -If 0 -Ii 1 -Iv 32 -P olsr -Pn 1 -Ps 0 [-Pt HELLO -Po 9 -Ph 0 -Pms 0] 
r -t 0.109668230 -Hs 6 -Hd -1 -Ni 6 -Nx 339.00 -Ny 344.00 -Nz 0.00 -Ne -1.000000 -Nl RTR -Nw --- -Ma 0 -Md ffffffff -Ms 9 -Mt 800 -Is 9.255 -Id -1.255 -It undefined -Il 48 -If 0 -Ii 1 -Iv 32 -P olsr -Pn 1 -Ps 0 [-Pt HELLO -Po 9 -Ph 0 -Pms 0] 
r -t 0.109668257 -Hs 1 -Hd -1 -Ni 1 -Nx 339.00 -Ny 394.00 -Nz 0.00 -Ne -1.000000 -Nl RTR -Nw --- -Ma 0 -Md ffffffff -Ms 9 -Mt 800 -Is 9.255 -Id -1.255 -It undefined -Il 48 -If 0 -Ii 1 -Iv 32 -P olsr -Pn 1 -Ps 0 [-Pt HELLO -Po 9 -Ph 0 -Pms 0] 
r -t 0.109668396 -Hs 5 -Hd -1 -Ni 5 -Nx 289.00 -Ny 344.00 -Nz 0.00 -Ne -1.000000 -Nl RTR -Nw --- -Ma 0 -Md ffffffff -Ms 9 -Mt 800 -Is 9.255 -Id -1.255 -It undefined -Il 48 -If 0 -Ii 1 -Iv 32 -P olsr -Pn 1 -Ps 0 [-Pt HELLO -Po 9 -Ph 0 -Pms 0] 
r -t 0.109668417 -Hs 0 -Hd -1 -Ni 0 -Nx 289.00 -Ny 394.00 -Nz 0.00 -Ne -1.000000 -Nl RTR -Nw --- -Ma 0 -Md ffffffff -Ms 9 -Mt 800 -Is 9.255 -Id -1.255 -It undefined -Il 48 -If 0 -Ii 1 -Iv 32 -P olsr -Pn 1 -Ps 0 [-Pt HELLO -Po 9 -Ph 0 -Pms 0] 
s -t 0.117300876 -Hs 2 -Hd -1 -Ni 2 -Nx 389.00 -Ny 394.00 -Nz 0.00 -Ne -1.000000 -Nl RTR -Nw --- -Ma 0 -Md 0 -Ms 0 -Mt 0 -Is 2.255 -Id -1.255 -It undefined -Il 48 -If 0 -Ii 2 -Iv 32 -P olsr -Pn 1 -Ps 0 [-Pt HELLO -Po 2 -Ph 0 -Pms 0] 
s -t 0.117655876 -Hs 2 -Hd -1 -Ni 2 -Nx 389.00 -Ny 394.00 -Nz 0.00 -Ne -1.000000 -Nl MAC -Nw --- -Ma 0 -Md ffffffff -Ms 2 -Mt 800 -Is 2.255 -Id -1.255 -It undefined -Il 106 -If 0 -Ii 2 -Iv 32 -P olsr -Pn 1 -Ps 0 [-Pt HELLO -Po 2 -Ph 0 -Pms 0] 
r -t 0.118504043 -Hs 1 -Hd -1 -Ni 1 -Nx 339.00 -Ny 394.00 -Nz 0.00 -Ne -1.000000 -Nl MAC -Nw --- -Ma 0 -Md ffffffff -Ms 2 -Mt 800 -Is 2.255 -Id -1.255 -It undefined -Il 48 -If 0 -Ii 2 -Iv 32 -P olsr -Pn 1 -Ps 0 [-Pt HELLO -Po 2 -Ph 0 -Pms 0] 
r -t 0.118504043 -Hs 7 -Hd -1 -Ni 7 -Nx 389.00 -Ny 344.00 -Nz 0.00 -Ne -1.000000 -Nl MAC -Nw --- -Ma 0 -Md ffffffff -Ms 2 -Mt 800 -Is 2.255 -Id -1.255 -It undefined -Il 48 -If 0 -Ii 2 -Iv 32 -P olsr -Pn 1 -Ps 0 [-Pt HELLO -Po 2 -Ph 0 -Pms 0] 
r -t 0.118504043 -Hs 3 -Hd -1 -Ni 3 -Nx 439.00 -Ny 394.00 -Nz 0.00 -Ne -1.000000 -Nl MAC -Nw --- -Ma 0 -Md ffffffff -Ms 2 -Mt 800 -Is 2.255 -Id -1.255 -It undefined -Il 48 -If 0 -Ii 2 -Iv 32 -P olsr -Pn 1 -Ps 0 [-Pt HELLO -Po 2 -Ph 0 -Pms 0] 
r -t 0.118504112 -Hs 6 -Hd -1 -Ni 6 -Nx 339.00 -Ny 344.00 -Nz 0.00 -Ne -1.000000 -Nl MAC -Nw --- -Ma 0 -Md ffffffff -Ms 2 -Mt 800 -Is 2.255 -Id -1.255 -It undefined -Il 48 -If 0 -Ii 2 -Iv 32 -P olsr -Pn 1 -Ps 0 [-Pt HELLO -Po 2 -Ph 0 -Pms 0] 
r -t 0.118504112 -Hs 8 -Hd -1 -Ni 8 -Nx 439.00 -Ny 344.00 -Nz 0.00 -Ne -1.000000 -Nl MAC -Nw --- -Ma 0 -Md ffffffff -Ms 2 -Mt 800 -Is 2.255 -Id -1.255 -It undefined -Il 48 -If 0 -Ii 2 -Iv 32 -P olsr -Pn 1 -Ps 0 [-Pt HELLO -Po 2 -Ph 0 -Pms 0] 
r -t 0.118504209 -Hs 0 -Hd -1 -Ni 0 -Nx 289.00 -Ny 394.00 -Nz 0.00 -Ne -1.000000 -Nl MAC -Nw --- -Ma 0 -Md ffffffff -Ms 2 -Mt 800 -Is 2.255 -Id -1.255 -It undefined -Il 48 -If 0 -Ii 2 -Iv 32 -P olsr -Pn 1 -Ps 0 [-Pt HELLO -Po 2 -Ph 0 -Pms 0] 
r -t 0.118504209 -Hs 4 -Hd -1 -Ni 4 -Nx 489.00 -Ny 394.00 -Nz 0.00 -Ne -1.000000 -Nl MAC -Nw --- -Ma 0 -Md ffffffff -Ms 2 -Mt 800 -Is 2.255 -Id -1.255 -It undefined -Il 48 -If 0 -Ii 2 -Iv 32 -P olsr -Pn 1 -Ps 0 [-Pt HELLO -Po 2 -Ph 0 -Pms 0] 
r -t 0.118504249 -Hs 5 -Hd -1 -Ni 5 -Nx 289.00 -Ny 344.00 -Nz 0.00 -Ne -1.000000 -Nl MAC -Nw --- -Ma 0 -Md ffffffff -Ms 2 -Mt 800 -Is 2.255 -Id -1.255 -It undefined -Il 48 -If 0 -Ii 2 -Iv 32 -P olsr -Pn 1 -Ps 0 [-Pt HELLO -Po 2 -Ph 0 -Pms 0] 
r -t 0.118504249 -Hs 9 -Hd -1 -Ni 9 -Nx 489.00 -Ny 344.00 -Nz 0.00 -Ne -1.000000 -Nl MAC -Nw --- -Ma 0 -Md ffffffff -Ms 2 -Mt 800 -Is 2.255 -Id -1.255 -It undefined -Il 48 -If 0 -Ii 2 -Iv 32 -P olsr -Pn 1 -Ps 0 [-Pt HELLO -Po 2 -Ph 0 -Pms 0] 
r -t 0.118529043 -Hs 1 -Hd -1 -Ni 1 -Nx 339.00 -Ny 394.00 -Nz 0.00 -Ne -1.000000 -Nl RTR -Nw --- -Ma 0 -Md ffffffff -Ms 2 -Mt 800 -Is 2.255 -Id -1.255 -It undefined -Il 48 -If 0 -Ii 2 -Iv 32 -P olsr -Pn 1 -Ps 0 [-Pt HELLO -Po 2 -Ph 0 -Pms 0] 
r -t 0.118529043 -Hs 7 -Hd -1 -Ni 7 -Nx 389.00 -Ny 344.00 -Nz 0.00 -Ne -1.000000 -Nl RTR -Nw --- -Ma 0 -Md ffffffff -Ms 2 -Mt 800 -Is 2.255 -Id -1.255 -It undefined -Il 48 -If 0 -Ii 2 -Iv 32 -P olsr -Pn 1 -Ps 0 [-Pt HELLO -Po 2 -Ph 0 -Pms 0] 
r -t 0.118529043 -Hs 3 -Hd -1 -Ni 3 -Nx 439.00 -Ny 394.00 -Nz 0.00 -Ne -1.000000 -Nl RTR -Nw --- -Ma 0 -Md ffffffff -Ms 2 -Mt 800 -Is 2.255 -Id -1.255 -It undefined -Il 48 -If 0 -Ii 2 -Iv 32 -P olsr -Pn 1 -Ps 0 [-Pt HELLO -Po 2 -Ph 0 -Pms 0] 
r -t 0.118529112 -Hs 6 -Hd -1 -Ni 6 -Nx 339.00 -Ny 344.00 -Nz 0.00 -Ne -1.000000 -Nl RTR -Nw --- -Ma 0 -Md ffffffff -Ms 2 -Mt 800 -Is 2.255 -Id -1.255 -It undefined -Il 48 -If 0 -Ii 2 -Iv 32 -P olsr -Pn 1 -Ps 0 [-Pt HELLO -Po 2 -Ph 0 -Pms 0] 
r -t 0.118529112 -Hs 8 -Hd -1 -Ni 8 -Nx 439.00 -Ny 344.00 -Nz 0.00 -Ne -1.000000 -Nl RTR -Nw --- -Ma 0 -Md ffffffff -Ms 2 -Mt 800 -Is 2.255 -Id -1.255 -It undefined -Il 48 -If 0 -Ii 2 -Iv 32 -P olsr -Pn 1 -Ps 0 [-Pt HELLO -Po 2 -Ph 0 -Pms 0] 
r -t 0.118529209 -Hs 0 -Hd -1 -Ni 0 -Nx 289.00 -Ny 394.00 -Nz 0.00 -Ne -1.000000 -Nl RTR -Nw --- -Ma 0 -Md ffffffff -Ms 2 -Mt 800 -Is 2.255 -Id -1.255 -It undefined -Il 48 -If 0 -Ii 2 -Iv 32 -P olsr -Pn 1 -Ps 0 [-Pt HELLO -Po 2 -Ph 0 -Pms 0] 
r -t 0.118529209 -Hs 4 -Hd -1 -Ni 4 -Nx 489.00 -Ny 394.00 -Nz 0.00 -Ne -1.000000 -Nl RTR -Nw --- -Ma 0 -Md ffffffff -Ms 2 -Mt 800 -Is 2.255 -Id -1.255 -It undefined -Il 48 -If 0 -Ii 2 -Iv 32 -P olsr -Pn 1 -Ps 0 [-Pt HELLO -Po 2 -Ph 0 -Pms 0] 
r -t 0.118529249 -Hs 5 -Hd -1 -Ni 5 -Nx 289.00 -Ny 344.00 -Nz 0.00 -Ne -1.000000 -Nl RTR -Nw --- -Ma 0 -Md ffffffff -Ms 2 -Mt 800 -Is 2.255 -Id -1.255 -It undefined -Il 48 -If 0 -Ii 2 -Iv 32 -P olsr -Pn 1 -Ps 0 [-Pt HELLO -Po 2 -Ph 0 -Pms 0] 
r -t 0.118529249 -Hs 9 -Hd -1 -Ni 9 -Nx 489.00 -Ny 344.00 -Nz 0.00 -Ne -1.000000 -Nl RTR -Nw --- -Ma 0 -Md ffffffff -Ms 2 -Mt 800 -Is 2.255 -Id -1.255 -It undefined -Il 48 -If 0 -Ii 2 -Iv 32 -P olsr -Pn 1 -Ps 0 [-Pt HELLO -Po 2 -Ph 0 -Pms 0] 
s -t 0.204342838 -Hs 7 -Hd -1 -Ni 7 -Nx 389.00 -Ny 344.00 -Nz 0.00 -Ne -1.000000 -Nl RTR -Nw --- -Ma 0 -Md 0 -Ms 0 -Mt 0 -Is 7.255 -Id -1.255 -It undefined -Il 48 -If 0 -Ii 3 -Iv 32 -P olsr -Pn 1 -Ps 0 [-Pt HELLO -Po 7 -Ph 0 -Pms 0] 
s -t 0.204517838 -Hs 7 -Hd -1 -Ni 7 -Nx 389.00 -Ny 344.00 -Nz 0.00 -Ne -1.000000 -Nl MAC -Nw --- -Ma 0 -Md ffffffff -Ms 7 -Mt 800 -Is 7.255 -Id -1.255 -It undefined -Il 106 -If 0 -Ii 3 -Iv 32 -P olsr -Pn 1 -Ps 0 [-Pt HELLO -Po 7 -Ph 0 -Pms 0] 
r -t 0.205366005 -Hs 2 -Hd -1 -Ni 2 -Nx 389.00 -Ny 394.00 -Nz 0.00 -Ne -1.000000 -Nl MAC -Nw --- -Ma 0 -Md ffffffff -Ms 7 -Mt 800 -Is 7.255 -Id -1.255 -It undefined -Il 48 -If 0 -Ii 3 -Iv 32 -P olsr -Pn 1 -Ps 0 [-Pt HELLO -Po 7 -Ph 0 -Pms 0] 
r -t 0.205366005 -Hs 6 -Hd -1 -Ni 6 -Nx 339.00 -Ny 344.00 -Nz 0.00 -Ne -1.000000 -Nl MAC -Nw --- -Ma 0 -Md ffffffff -Ms 7 -Mt 800 -Is 7.255 -Id -1.255 -It undefined -Il 48 -If 0 -Ii 3 -Iv 32 -P olsr -Pn 1 -Ps 0 [-Pt HELLO -Po 7 -Ph 0 -Pms 0] 
r -t 0.205366005 -Hs 8 -Hd -1 -Ni 8 -Nx 439.00 -Ny 344.00 -Nz 0.00 -Ne -1.000000 -Nl MAC -Nw --- -Ma 0 -Md ffffffff -Ms 7 -Mt 800 -Is 7.255 -Id -1.255 -It undefined -Il 48 -If 0 -Ii 3 -Iv 32 -P olsr -Pn 1 -Ps 0 [-Pt HELLO -Po 7 -Ph 0 -Pms 0] 
r -t 0.205366074 -Hs 1 -Hd -1 -Ni 1 -Nx 339.00 -Ny 394.00 -Nz 0.00 -Ne -1.000000 -Nl MAC -Nw --- -Ma 0 -Md ffffffff -Ms 7 -Mt 800 -Is 7.255 -Id -1.255 -It undefined -Il 48 -If 0 -Ii 3 -Iv 32 -P olsr -Pn 1 -Ps 0 [-Pt HELLO -Po 7 -Ph 0 -Pms 0] 
r -t 0.205366074 -Hs 3 -Hd -1 -Ni 3 -Nx 439.00 -Ny 394.00 -Nz 0.00 -Ne -1.000000 -Nl MAC -Nw --- -Ma 0 -Md ffffffff -Ms 7 -Mt 800 -Is 7.255 -Id -1.255 -It undefined -Il 48 -If 0 -Ii 3 -Iv 32 -P olsr -Pn 1 -Ps 0 [-Pt HELLO -Po 7 -Ph 0 -Pms 0] 
r -t 0.205366171 -Hs 5 -Hd -1 -Ni 5 -Nx 289.00 -Ny 344.00 -Nz 0.00 -Ne -1.000000 -Nl MAC -Nw --- -Ma 0 -Md ffffffff -Ms 7 -Mt 800 -Is 7.255 -Id -1.255 -It undefined -Il 48 -If 0 -Ii 3 -Iv 32 -P olsr -Pn 1 -Ps 0 [-Pt HELLO -Po 7 -Ph 0 -Pms 0] 
r -t 0.205366171 -Hs 9 -Hd -1 -Ni 9 -Nx 489.00 -Ny 344.00 -Nz 0.00 -Ne -1.000000 -Nl MAC -Nw --- -Ma 0 -Md ffffffff -Ms 7 -Mt 800 -Is 7.255 -Id -1.255 -It undefined -Il 48 -If 0 -Ii 3 -Iv 32 -P olsr -Pn 1 -Ps 0 [-Pt HELLO -Po 7 -Ph 0 -Pms 0] 
r -t 0.205366211 -Hs 0 -Hd -1 -Ni 0 -Nx 289.00 -Ny 394.00 -Nz 0.00 -Ne -1.000000 -Nl MAC -Nw --- -Ma 0 -Md ffffffff -Ms 7 -Mt 800 -Is 7.255 -Id -1.255 -It undefined -Il 48 -If 0 -Ii 3 -Iv 32 -P olsr -Pn 1 -Ps 0 [-Pt HELLO -Po 7 -Ph 0 -Pms 0] 
r -t 0.205366211 -Hs 4 -Hd -1 -Ni 4 -Nx 489.00 -Ny 394.00 -Nz 0.00 -Ne -1.000000 -Nl MAC -Nw --- -Ma 0 -Md ffffffff -Ms 7 -Mt 800 -Is 7.255 -Id -1.255 -It undefined -Il 48 -If 0 -Ii 3 -Iv 32 -P olsr -Pn 1 -Ps 0 [-Pt HELLO -Po 7 -Ph 0 -Pms 0] 
r -t 0.205391005 -Hs 2 -Hd -1 -Ni 2 -Nx 389.00 -Ny 394.00 -Nz 0.00 -Ne -1.000000 -Nl RTR -Nw --- -Ma 0 -Md ffffffff -Ms 7 -Mt 800 -Is 7.255 -Id -1.255 -It undefined -Il 48 -If 0 -Ii 3 -Iv 32 -P olsr -Pn 1 -Ps 0 [-Pt HELLO -Po 7 -Ph 0 -Pms 0] 
r -t 0.205391005 -Hs 6 -Hd -1 -Ni 6 -Nx 339.00 -Ny 344.00 -Nz 0.00 -Ne -1.000000 -Nl RTR -Nw --- -Ma 0 -Md ffffffff -Ms 7 -Mt 800 -Is 7.255 -Id -1.255 -It undefined -Il 48 -If 0 -Ii 3 -Iv 32 -P olsr -Pn 1 -Ps 0 [-Pt HELLO -Po 7 -Ph 0 -Pms 0] 
r -t 0.205391005 -Hs 8 -Hd -1 -Ni 8 -Nx 439.00 -Ny 344.00 -Nz 0.00 -Ne -1.000000 -Nl RTR -Nw --- -Ma 0 -Md ffffffff -Ms 7 -Mt 800 -Is 7.255 -Id -1.255 -It undefined -Il 48 -If 0 -Ii 3 -Iv 32 -P olsr -Pn 1 -Ps 0 [-Pt HELLO -Po 7 -Ph 0 -Pms 0] 
r -t 0.205391074 -Hs 1 -Hd -1 -Ni 1 -Nx 339.00 -Ny 394.00 -Nz 0.00 -Ne -1.000000 -Nl RTR -Nw --- -Ma 0 -Md ffffffff -Ms 7 -Mt 800 -Is 7.255 -Id -1.255 -It undefined -Il 48 -If 0 -Ii 3 -Iv 32 -P olsr -Pn 1 -Ps 0 [-Pt HELLO -Po 7 -Ph 0 -Pms 0] 
r -t 0.205391074 -Hs 3 -Hd -1 -Ni 3 -Nx 439.00 -Ny 394.00 -Nz 0.00 -Ne -1.000000 -Nl RTR -Nw --- -Ma 0 -Md ffffffff -Ms 7 -Mt 800 -Is 7.255 -Id -1.255 -It undefined -Il 48 -If 0 -Ii 3 -Iv 32 -P olsr -Pn 1 -Ps 0 [-Pt HELLO -Po 7 -Ph 0 -Pms 0] 
r -t 0.205391171 -Hs 5 -Hd -1 -Ni 5 -Nx 289.00 -Ny 344.00 -Nz 0.00 -Ne -1.000000 -Nl RTR -Nw --- -Ma 0 -Md ffffffff -Ms 7 -Mt 800 -Is 7.255 -Id -1.255 -It undefined -Il 48 -If 0 -Ii 3 -Iv 32 -P olsr -Pn 1 -Ps 0 [-Pt HELLO -Po 7 -Ph 0 -Pms 0] 
r -t 0.205391171 -Hs 9 -Hd -1 -Ni 9 -Nx 489.00 -Ny 344.00 -Nz 0.00 -Ne -1.000000 -Nl RTR -Nw --- -Ma 0 -Md ffffffff -Ms 7 -Mt 800 -Is 7.255 -Id -1.255 -It undefined -Il 48 -If 0 -Ii 3 -Iv 32 -P olsr -Pn 1 -Ps 0 [-Pt HELLO -Po 7 -Ph 0 -Pms 0] 
r -t 0.205391211 -Hs 0 -Hd -1 -Ni 0 -Nx 289.00 -Ny 394.00 -Nz 0.00 -Ne -1.000000 -Nl RTR -Nw --- -Ma 0 -Md ffffffff -Ms 7 -Mt 800 -Is 7.255 -Id -1.255 -It undefined -Il 48 -If 0 -Ii 3 -Iv 32 -P olsr -Pn 1 -Ps 0 [-Pt HELLO -Po 7 -Ph 0 -Pms 0] 
r -t 0.205391211 -Hs 4 -Hd -1 -Ni 4 -Nx 489.00 -Ny 394.00 -Nz 0.00 -Ne -1.000000 -Nl RTR -Nw --- -Ma 0 -Md ffffffff -Ms 7 -Mt 800 -Is 7.255 -Id -1.255 -It undefined -Il 48 -If 0 -Ii 3 -Iv 32 -P olsr -Pn 1 -Ps 0 [-Pt HELLO -Po 7 -Ph 0 -Pms 0] 
s -t 0.211828368 -Hs 5 -Hd -1 -Ni 5 -Nx 289.00 -Ny 344.00 -Nz 0.00 -Ne -1.000000 -Nl RTR -Nw --- -Ma 0 -Md 0 -Ms 0 -Mt 0 -Is 5.255 -Id -1.255 -It undefined -Il 48 -If 0 -Ii 4 -Iv 32 -P olsr -Pn 1 -Ps 0 [-Pt HELLO -Po 5 -Ph 0 -Pms 0] 
s -t 0.212123368 -Hs 5 -Hd -1 -Ni 5 -Nx 289.00 -Ny 344.00 -Nz 0.00 -Ne -1.000000 -Nl MAC -Nw --- -Ma 0 -Md ffffffff -Ms 5 -Mt 800 -Is 5.255 -Id -1.255 -It undefined -Il 106 -If 0 -Ii 4 -Iv 32 -P olsr -Pn 1 -Ps 0 [-Pt HELLO -Po 5 -Ph 0 -Pms 0] 
r -t 0.212971535 -Hs 0 -Hd -1 -Ni 0 -Nx 289.00 -Ny 394.00 -Nz 0.00 -Ne -1.000000 -Nl MAC -Nw --- -Ma 0 -Md ffffffff -Ms 5 -Mt 800 -Is 5.255 -Id -1.255 -It undefined -Il 48 -If 0 -Ii 4 -Iv 32 -P olsr -Pn 1 -Ps 0 [-Pt HELLO -Po 5 -Ph 0 -Pms 0] 
r -t 0.212971535 -Hs 6 -Hd -1 -Ni 6 -Nx 339.00 -Ny 344.00 -Nz 0.00 -Ne -1.000000 -Nl MAC -Nw --- -Ma 0 -Md ffffffff -Ms 5 -Mt 800 -Is 5.255 -Id -1.255 -It undefined -Il 48 -If 0 -Ii 4 -Iv 32 -P olsr -Pn 1 -Ps 0 [-Pt HELLO -Po 5 -Ph 0 -Pms 0] 
r -t 0.212971604 -Hs 1 -Hd -1 -Ni 1 -Nx 339.00 -Ny 394.00 -Nz 0.00 -Ne -1.000000 -Nl MAC -Nw --- -Ma 0 -Md ffffffff -Ms 5 -Mt 800 -Is 5.255 -Id -1.255 -It undefined -Il 48 -If 0 -Ii 4 -Iv 32 -P olsr -Pn 1 -Ps 0 [-Pt HELLO -Po 5 -Ph 0 -Pms 0] 
r -t 0.212971701 -Hs 7 -Hd -1 -Ni 7 -Nx 389.00 -Ny 344.00 -Nz 0.00 -Ne -1.000000 -Nl MAC -Nw --- -Ma 0 -Md ffffffff -Ms 5 -Mt 800 -Is 5.255 -Id -1.255 -It undefined -Il 48 -If 0 -Ii 4 -Iv 32 -P olsr -Pn 1 -Ps 0 [-Pt HELLO -Po 5 -Ph 0 -Pms 0] 
r -t 0.212971741 -Hs 2 -Hd -1 -Ni 2 -Nx 389.00 -Ny 394.00 -Nz 0.00 -Ne -1.000000 -Nl MAC -Nw --- -Ma 0 -Md ffffffff -Ms 5 -Mt 800 -Is 5.255 -Id -1.255 -It undefined -Il 48 -If 0 -Ii 4 -Iv 32 -P olsr -Pn 1 -Ps 0 [-Pt HELLO -Po 5 -Ph 0 -Pms 0] 
r -t 0.212971868 -Hs 8 -Hd -1 -Ni 8 -Nx 439.00 -Ny 344.00 -Nz 0.00 -Ne -1.000000 -Nl MAC -Nw --- -Ma 0 -Md ffffffff -Ms 5 -Mt 800 -Is 5.255 -Id -1.255 -It undefined -Il 48 -If 0 -Ii 4 -Iv 32 -P olsr -Pn 1 -Ps 0 [-Pt HELLO -Po 5 -Ph 0 -Pms 0] 
r -t 0.212971895 -Hs 3 -Hd -1 -Ni 3 -Nx 439.00 -Ny 394.00 -Nz 0.00 -Ne -1.000000 -Nl MAC -Nw --- -Ma 0 -Md ffffffff -Ms 5 -Mt 800 -Is 5.255 -Id -1.255 -It undefined -Il 48 -If 0 -Ii 4 -Iv 32 -P olsr -Pn 1 -Ps 0 [-Pt HELLO -Po 5 -Ph 0 -Pms 0] 
r -t 0.212972035 -Hs 9 -Hd -1 -Ni 9 -Nx 489.00 -Ny 344.00 -Nz 0.00 -Ne -1.000000 -Nl MAC -Nw --- -Ma 0 -Md ffffffff -Ms 5 -Mt 800 -Is 5.255 -Id -1.255 -It undefined -Il 48 -If 0 -Ii 4 -Iv 32 -P olsr -Pn 1 -Ps 0 [-Pt HELLO -Po 5 -Ph 0 -Pms 0] 
r -t 0.212972055 -Hs 4 -Hd -1 -Ni 4 -Nx 489.00 -Ny 394.00 -Nz 0.00 -Ne -1.000000 -Nl MAC -Nw --- -Ma 0 -Md ffffffff -Ms 5 -Mt 800 -Is 5.255 -Id -1.255 -It undefined -Il 48 -If 0 -Ii 4 -Iv 32 -P olsr -Pn 1 -Ps 0 [-Pt HELLO -Po 5 -Ph 0 -Pms 0] 
r -t 0.212996535 -Hs 0 -Hd -1 -Ni 0 -Nx 289.00 -Ny 394.00 -Nz 0.00 -Ne -1.000000 -Nl RTR -Nw --- -Ma 0 -Md ffffffff -Ms 5 -Mt 800 -Is 5.255 -Id -1.255 -It undefined -Il 48 -If 0 -Ii 4 -Iv 32 -P olsr -Pn 1 -Ps 0 [-Pt HELLO -Po 5 -Ph 0 -Pms 0] 
r -t 0.212996535 -Hs 6 -Hd -1 -Ni 6 -Nx 339.00 -Ny 344.00 -Nz 0.00 -Ne -1.000000 -Nl RTR -Nw --- -Ma 0 -Md ffffffff -Ms 5 -Mt 800 -Is 5.255 -Id -1.255 -It undefined -Il 48 -If 0 -Ii 4 -Iv 32 -P olsr -Pn 1 -Ps 0 [-Pt HELLO -Po 5 -Ph 0 -Pms 0] 
r -t 0.212996604 -Hs 1 -Hd -1 -Ni 1 -Nx 339.00 -Ny 394.00 -Nz 0.00 -Ne -1.000000 -Nl RTR -Nw --- -Ma 0 -Md ffffffff -Ms 5 -Mt 800 -Is 5.255 -Id -1.255 -It undefined -Il 48 -If 0 -Ii 4 -Iv 32 -P olsr -Pn 1 -Ps 0 [-Pt HELLO -Po 5 -Ph 0 -Pms 0] 
r -t 0.212996701 -Hs 7 -Hd -1 -Ni 7 -Nx 389.00 -Ny 344.00 -Nz 0.00 -Ne -1.000000 -Nl RTR -Nw --- -Ma 0 -Md ffffffff -Ms 5 -Mt 800 -Is 5.255 -Id -1.255 -It undefined -Il 48 -If 0 -Ii 4 -Iv 32 -P olsr -Pn 1 -Ps 0 [-Pt HELLO -Po 5 -Ph 0 -Pms 0] 
r -t 0.212996741 -Hs 2 -Hd -1 -Ni 2 -Nx 389.00 -Ny 394.00 -Nz 0.00 -Ne -1.000000 -Nl RTR -Nw --- -Ma 0 -Md ffffffff -Ms 5 -Mt 800 -Is 5.255 -Id -1.255 -It undefined -Il 48 -If 0 -Ii 4 -Iv 32 -P olsr -Pn 1 -Ps 0 [-Pt HELLO -Po 5 -Ph 0 -Pms 0] 
r -t 0.212996868 -Hs 8 -Hd -1 -Ni 8 -Nx 439.00 -Ny 344.00 -Nz 0.00 -Ne -1.000000 -Nl RTR -Nw --- -Ma 0 -Md ffffffff -Ms 5 -Mt 800 -Is 5.255 -Id -1.255 -It undefined -Il 48 -If 0 -Ii 4 -Iv 32 -P olsr -Pn 1 -Ps 0 [-Pt HELLO -Po 5 -Ph 0 -Pms 0] 
r -t 0.212996895 -Hs 3 -Hd -1 -Ni 3 -Nx 439.00 -Ny 394.00 -Nz 0.00 -Ne -1.000000 -Nl RTR -Nw --- -Ma 0 -Md ffffffff -Ms 5 -Mt 800 -Is 5.255 -Id -1.255 -It undefined -Il 48 -If 0 -Ii 4 -Iv 32 -P olsr -Pn 1 -Ps 0 [-Pt HELLO -Po 5 -Ph 0 -Pms 0] 
r -t 0.212997035 -Hs 9 -Hd -1 -Ni 9 -Nx 489.00 -Ny 344.00 -Nz 0.00 -Ne -1.000000 -Nl RTR -Nw --- -Ma 0 -Md ffffffff -Ms 5 -Mt 800 -Is 5.255 -Id -1.255 -It undefined -Il 48 -If 0 -Ii 4 -Iv 32 -P olsr -Pn 1 -Ps 0 [-Pt HELLO -Po 5 -Ph 0 -Pms 0] 
r -t 0.212997055 -Hs 4 -Hd -1 -Ni 4 -Nx 489.00 -Ny 394.00 -Nz 0.00 -Ne -1.000000 -Nl RTR -Nw --- -Ma 0 -Md ffffffff -Ms 5 -Mt 800 -Is 5.255 -Id -1.255 -It undefined -Il 48 -If 0 -Ii 4 -Iv 32 -P olsr -Pn 1 -Ps 0 [-Pt HELLO -Po 5 -Ph 0 -Pms 0] 
s -t 0.320033830 -Hs 4 -Hd -1 -Ni 4 -Nx 489.00 -Ny 394.00 -Nz 0.00 -Ne -1.000000 -Nl RTR -Nw --- -Ma 0 -Md 0 -Ms 0 -Mt 0 -Is 4.255 -Id -1.255 -It undefined -Il 48 -If 0 -Ii 5 -Iv 32 -P olsr -Pn 1 -Ps 0 [-Pt HELLO -Po 4 -Ph 0 -Pms 0] 
s -t 0.320688830 -Hs 4 -Hd -1 -Ni 4 -Nx 489.00 -Ny 394.00 -Nz 0.00 -Ne -1.000000 -Nl MAC -Nw --- -Ma 0 -Md ffffffff -Ms 4 -Mt 800 -Is 4.255 -Id -1.255 -It undefined -Il 106 -If 0 -Ii 5 -Iv 32 -P olsr -Pn 1 -Ps 0 [-Pt HELLO -Po 4 -Ph 0 -Pms 0] 
r -t 0.321536996 -Hs 3 -Hd -1 -Ni 3 -Nx 439.00 -Ny 394.00 -Nz 0.00 -Ne -1.000000 -Nl MAC -Nw --- -Ma 0 -Md ffffffff -Ms 4 -Mt 800 -Is 4.255 -Id -1.255 -It undefined -Il 48 -If 0 -Ii 5 -Iv 32 -P olsr -Pn 1 -Ps 0 [-Pt HELLO -Po 4 -Ph 0 -Pms 0] 
r -t 0.321536996 -Hs 9 -Hd -1 -Ni 9 -Nx 489.00 -Ny 344.00 -Nz 0.00 -Ne -1.000000 -Nl MAC -Nw --- -Ma 0 -Md ffffffff -Ms 4 -Mt 800 -Is 4.255 -Id -1.255 -It undefined -Il 48 -If 0 -Ii 5 -Iv 32 -P olsr -Pn 1 -Ps 0 [-Pt HELLO -Po 4 -Ph 0 -Pms 0] 
r -t 0.321537065 -Hs 8 -Hd -1 -Ni 8 -Nx 439.00 -Ny 344.00 -Nz 0.00 -Ne -1.000000 -Nl MAC -Nw --- -Ma 0 -Md ffffffff -Ms 4 -Mt 800 -Is 4.255 -Id -1.255 -It undefined -Il 48 -If 0 -Ii 5 -Iv 32 -P olsr -Pn 1 -Ps 0 [-Pt HELLO -Po 4 -Ph 0 -Pms 0] 
r -t 0.321537163 -Hs 2 -Hd -1 -Ni 2 -Nx 389.00 -Ny 394.00 -Nz 0.00 -Ne -1.000000 -Nl MAC -Nw --- -Ma 0 -Md ffffffff -Ms 4 -Mt 800 -Is 4.255 -Id -1.255 -It undefined -Il 48 -If 0 -Ii 5 -Iv 32 -P olsr -Pn 1 -Ps 0 [-Pt HELLO -Po 4 -Ph 0 -Pms 0] 
r -t 0.321537202 -Hs 7 -Hd -1 -Ni 7 -Nx 389.00 -Ny 344.00 -Nz 0.00 -Ne -1.000000 -Nl MAC -Nw --- -Ma 0 -Md ffffffff -Ms 4 -Mt 800 -Is 4.255 -Id -1.255 -It undefined -Il 48 -If 0 -Ii 5 -Iv 32 -P olsr -Pn 1 -Ps 0 [-Pt HELLO -Po 4 -Ph 0 -Pms 0] 
r -t 0.321537330 -Hs 1 -Hd -1 -Ni 1 -Nx 339.00 -Ny 394.00 -Nz 0.00 -Ne -1.000000 -Nl MAC -Nw --- -Ma 0 -Md ffffffff -Ms 4 -Mt 800 -Is 4.255 -Id -1.255 -It undefined -Il 48 -If 0 -Ii 5 -Iv 32 -P olsr -Pn 1 -Ps 0 [-Pt HELLO -Po 4 -Ph 0 -Pms 0] 
r -t 0.321537357 -Hs 6 -Hd -1 -Ni 6 -Nx 339.00 -Ny 344.00 -Nz 0.00 -Ne -1.000000 -Nl MAC -Nw --- -Ma 0 -Md ffffffff -Ms 4 -Mt 800 -Is 4.255 -Id -1.255 -It undefined -Il 48 -If 0 -Ii 5 -Iv 32 -P olsr -Pn 1 -Ps 0 [-Pt HELLO -Po 4 -Ph 0 -Pms 0] 
r -t 0.321537496 -Hs 0 -Hd -1 -Ni 0 -Nx 289.00 -Ny 394.00 -Nz 0.00 -Ne -1.000000 -Nl MAC -Nw --- -Ma 0 -Md ffffffff -Ms 4 -Mt 800 -Is 4.255 -Id -1.255 -It undefined -Il 48 -If 0 -Ii 5 -Iv 32 -P olsr -Pn 1 -Ps 0 [-Pt HELLO -Po 4 -Ph 0 -Pms 0] 
r -t 0.321537517 -Hs 5 -Hd -1 -Ni 5 -Nx 289.00 -Ny 344.00 -Nz 0.00 -Ne -1.000000 -Nl MAC -Nw --- -Ma 0 -Md ffffffff -Ms 4 -Mt 800 -Is 4.255 -Id -1.255 -It undefined -Il 48 -If 0 -Ii 5 -Iv 32 -P olsr -Pn 1 -Ps 0 [-Pt HELLO -Po 4 -Ph 0 -Pms 0] 
r -t 0.321561996 -Hs 3 -Hd -1 -Ni 3 -Nx 439.00 -Ny 394.00 -Nz 0.00 -Ne -1.000000 -Nl RTR -Nw --- -Ma 0 -Md ffffffff -Ms 4 -Mt 800 -Is 4.255 -Id -1.255 -It undefined -Il 48 -If 0 -Ii 5 -Iv 32 -P olsr -Pn 1 -Ps 0 [-Pt HELLO -Po 4 -Ph 0 -Pms 0] 
r -t 0.321561996 -Hs 9 -Hd -1 -Ni 9 -Nx 489.00 -Ny 344.00 -Nz 0.00 -Ne -1.000000 -Nl RTR -Nw --- -Ma 0 -Md ffffffff -Ms 4 -Mt 800 -Is 4.255 -Id -1.255 -It undefined -Il 48 -If 0 -Ii 5 -Iv 32 -P olsr -Pn 1 -Ps 0 [-Pt HELLO -Po 4 -Ph 0 -Pms 0] 
r -t 0.321562065 -Hs 8 -Hd -1 -Ni 8 -Nx 439.00 -Ny 344.00 -Nz 0.00 -Ne -1.000000 -Nl RTR -Nw --- -Ma 0 -Md ffffffff -Ms 4 -Mt 800 -Is 4.255 -Id -1.255 -It undefined -Il 48 -If 0 -Ii 5 -Iv 32 -P olsr -Pn 1 -Ps 0 [-Pt HELLO -Po 4 -Ph 0 -Pms 0] 
r -t 0.321562163 -Hs 2 -Hd -1 -Ni 2 -Nx 389.00 -Ny 394.00 -Nz 0.00 -Ne -1.000000 -Nl RTR -Nw --- -Ma 0 -Md ffffffff -Ms 4 -Mt 800 -Is 4.255 -Id -1.255 -It undefined -Il 48 -If 0 -Ii 5 -Iv 32 -P olsr -Pn 1 -Ps 0 [-Pt HELLO -Po 4 -Ph 0 -Pms 0] 
r -t 0.321562202 -Hs 7 -Hd -1 -Ni 7 -Nx 389.00 -Ny 344.00 -Nz 0.00 -Ne -1.000000 -Nl RTR -Nw --- -Ma 0 -Md ffffffff -Ms 4 -Mt 800 -Is 4.255 -Id -1.255 -It undefined -Il 48 -If 0 -Ii 5 -Iv 32 -P olsr -Pn 1 -Ps 0 [-Pt HELLO -Po 4 -Ph 0 -Pms 0] 
r -t 0.321562330 -Hs 1 -Hd -1 -Ni 1 -Nx 339.00 -Ny 394.00 -Nz 0.00 -Ne -1.000000 -Nl RTR -Nw --- -Ma 0 -Md ffffffff -Ms 4 -Mt 800 -Is 4.255 -Id -1.255 -It undefined -Il 48 -If 0 -Ii 5 -Iv 32 -P olsr -Pn 1 -Ps 0 [-Pt HELLO -Po 4 -Ph 0 -Pms 0] 
r -t 0.321562357 -Hs 6 -Hd -1 -Ni 6 -Nx 339.00 -Ny 344.00 -Nz 0.00 -Ne -1.000000 -Nl RTR -Nw --- -Ma 0 -Md ffffffff -Ms 4 -Mt 800 -Is 4.255 -Id -1.255 -It undefined -Il 48 -If 0 -Ii 5 -Iv 32 -P olsr -Pn 1 -Ps 0 [-Pt HELLO -Po 4 -Ph 0 -Pms 0] 
r -t 0.321562496 -Hs 0 -Hd -1 -Ni 0 -Nx 289.00 -Ny 394.00 -Nz 0.00 -Ne -1.000000 -Nl RTR -Nw --- -Ma 0 -Md ffffffff -Ms 4 -Mt 800 -Is 4.255 -Id -1.255 -It undefined -Il 48 -If 0 -Ii 5 -Iv 32 -P olsr -Pn 1 -Ps 0 [-Pt HELLO -Po 4 -Ph 0 -Pms 0] 
r -t 0.321562517 -Hs 5 -Hd -1 -Ni 5 -Nx 289.00 -Ny 344.00 -Nz 0.00 -Ne -1.000000 -Nl RTR -Nw --- -Ma 0 -Md ffffffff -Ms 4 -Mt 800 -Is 4.255 -Id -1.255 -It undefined -Il 48 -If 0 -Ii 5 -Iv 32 -P olsr -Pn 1 -Ps 0 [-Pt HELLO -Po 4 -Ph 0 -Pms 0] 
s -t 0.346153416 -Hs 8 -Hd -1 -Ni 8 -Nx 439.00 -Ny 344.00 -Nz 0.00 -Ne -1.000000 -Nl RTR -Nw --- -Ma 0 -Md 0 -Ms 0 -Mt 0 -Is 8.255 -Id -1.255 -It undefined -Il 48 -If 0 -Ii 6 -Iv 32 -P olsr -Pn 1 -Ps 0 [-Pt HELLO -Po 8 -Ph 0 -Pms 0] 
s -t 0.346348416 -Hs 8 -Hd -1 -Ni 8 -Nx 439.00 -Ny 344.00 -Nz 0.00 -Ne -1.000000 -Nl MAC -Nw --- -Ma 0 -Md ffffffff -Ms 8 -Mt 800 -Is 8.255 -Id -1.255 -It undefined -Il 106 -If 0 -Ii 6 -Iv 32 -P olsr -Pn 1 -Ps 0 [-Pt HELLO -Po 8 -Ph 0 -Pms 0] 
r -t 0.347196583 -Hs 3 -Hd -1 -Ni 3 -Nx 439.00 -Ny 394.00 -Nz 0.00 -Ne -1.000000 -Nl MAC -Nw --- -Ma 0 -Md ffffffff -Ms 8 -Mt 800 -Is 8.255 -Id -1.255 -It undefined -Il 48 -If 0 -Ii 6 -Iv 32 -P olsr -Pn 1 -Ps 0 [-Pt HELLO -Po 8 -Ph 0 -Pms 0] 