n -t * -s 0  -x 386 -y 395 -Z 0 -z 20  -v circle -c black
n -t * -s 1  -x 436 -y 395 -Z 0 -z 20  -v circle -c black
n -t * -s 2  -x 486 -y 395 -Z 0 -z 20  -v circle -c black
n -t * -s 3  -x 536 -y 395 -Z 0 -z 20  -v circle -c black
n -t * -s 4  -x 586 -y 395 -Z 0 -z 20  -v circle -c black
n -t * -s 5  -x 636 -y 395 -Z 0 -z 20  -v circle -c black
n -t * -s 6  -x 686 -y 395 -Z 0 -z 20  -v circle -c black
n -t * -s 7  -x 736 -y 395 -Z 0 -z 20  -v circle -c black
n -t * -s 8  -x 386 -y 345 -Z 0 -z 20  -v circle -c black
n -t * -s 9  -x 436 -y 345 -Z 0 -z 20  -v circle -c black
n -t * -s 10  -x 486 -y 345 -Z 0 -z 20  -v circle -c black
n -t * -s 11  -x 536 -y 345 -Z 0 -z 20  -v circle -c black
n -t * -s 12  -x 586 -y 345 -Z 0 -z 20  -v circle -c black
n -t * -s 13  -x 636 -y 345 -Z 0 -z 20  -v circle -c black
n -t * -s 14  -x 686 -y 345 -Z 0 -z 20  -v circle -c black
n -t * -s 15  -x 736 -y 345 -Z 0 -z 20  -v circle -c black
n -t * -s 16  -x 386 -y 295 -Z 0 -z 20  -v circle -c black
n -t * -s 17  -x 436 -y 295 -Z 0 -z 20  -v circle -c black
n -t * -s 18  -x 486 -y 295 -Z 0 -z 20  -v circle -c black
n -t * -s 19  -x 536 -y 295 -Z 0 -z 20  -v circle -c black
n -t * -s 20  -x 586 -y 295 -Z 0 -z 20  -v circle -c black
n -t * -s 21  -x 636 -y 295 -Z 0 -z 20  -v circle -c black
n -t * -s 22  -x 686 -y 295 -Z 0 -z 20  -v circle -c black
n -t * -s 23  -x 736 -y 295 -Z 0 -z 20  -v circle -c black
n -t * -s 24  -x 386 -y 245 -Z 0 -z 20  -v circle -c black
n -t * -s 25  -x 436 -y 245 -Z 0 -z 20  -v circle -c black
n -t * -s 26  -x 486 -y 245 -Z 0 -z 20  -v circle -c black
n -t * -s 27  -x 536 -y 245 -Z 0 -z 20  -v circle -c black
n -t * -s 28  -x 586 -y 245 -Z 0 -z 20  -v circle -c black
n -t * -s 29  -x 636 -y 245 -Z 0 -z 20  -v circle -c black
n -t * -s 30  -x 686 -y 245 -Z 0 -z 20  -v circle -c black
n -t * -s 31  -x 736 -y 245 -Z 0 -z 20  -v circle -c black
n -t * -s 32  -x 386 -y 195 -Z 0 -z 20  -v circle -c black
n -t * -s 33  -x 436 -y 195 -Z 0 -z 20  -v circle -c black
n -t * -s 34  -x 486 -y 195 -Z 0 -z 20  -v circle -c black
n -t * -s 35  -x 536 -y 195 -Z 0 -z 20  -v circle -c black
n -t * -s 36  -x 586 -y 195 -Z 0 -z 20  -v circle -c black
n -t * -s 37  -x 636 -y 195 -Z 0 -z 20  -v circle -c black
n -t * -s 38  -x 686 -y 195 -Z 0 -z 20  -v circle -c black
n -t * -s 39  -x 736 -y 195 -Z 0 -z 20  -v circle -c black
V -t * -v 1.0a5 -a 0
W -t * -x 836 -y 495
A -t * -n 1 -p 0 -o 0x7fffffff -c 30 -a 1
A -t * -h 1 -m 1073741823 -s 0
+ -t 0.001675134 -s 32 -d -1 -p undefined -e 48 -c 2 -a 0 -i 0 -k RTR 
- -t 0.001675134 -s 32 -d -1 -p undefined -e 48 -c 2 -a 0 -i 0 -k RTR
h -t 0.001675134 -s 32 -d -1 -p undefined -e 48 -c 2 -a 0 -i 0 -k RTR
+ -t 0.002190134 -s 32 -d -1 -p undefined -e 106 -c 2 -a 0 -i 0 -k MAC 
- -t 0.002190134 -s 32 -d -1 -p undefined -e 106 -c 2 -a 0 -i 0 -k MAC
h -t 0.002190134 -s 32 -d -1 -p undefined -e 106 -c 2 -a 0 -i 0 -k MAC
r -t 0.003038301 -s 24 -d -1 -p undefined -e 48 -c 2 -a 0 -i 0 -k MAC
r -t 0.003038301 -s 33 -d -1 -p undefined -e 48 -c 2 -a 0 -i 0 -k MAC
r -t 0.003038370 -s 25 -d -1 -p undefined -e 48 -c 2 -a 0 -i 0 -k MAC
r -t 0.003038468 -s 16 -d -1 -p undefined -e 48 -c 2 -a 0 -i 0 -k MAC
r -t 0.003038468 -s 34 -d -1 -p undefined -e 48 -c 2 -a 0 -i 0 -k MAC
r -t 0.003038507 -s 17 -d -1 -p undefined -e 48 -c 2 -a 0 -i 0 -k MAC
r -t 0.003038507 -s 26 -d -1 -p undefined -e 48 -c 2 -a 0 -i 0 -k MAC
r -t 0.003038606 -s 18 -d -1 -p undefined -e 48 -c 2 -a 0 -i 0 -k MAC
r -t 0.003038634 -s 8 -d -1 -p undefined -e 48 -c 2 -a 0 -i 0 -k MAC
r -t 0.003038634 -s 35 -d -1 -p undefined -e 48 -c 2 -a 0 -i 0 -k MAC
r -t 0.003038661 -s 9 -d -1 -p undefined -e 48 -c 2 -a 0 -i 0 -k MAC
r -t 0.003038661 -s 27 -d -1 -p undefined -e 48 -c 2 -a 0 -i 0 -k MAC
r -t 0.003038735 -s 10 -d -1 -p undefined -e 48 -c 2 -a 0 -i 0 -k MAC
r -t 0.003038735 -s 19 -d -1 -p undefined -e 48 -c 2 -a 0 -i 0 -k MAC
r -t 0.003038801 -s 0 -d -1 -p undefined -e 48 -c 2 -a 0 -i 0 -k MAC
r -t 0.003038801 -s 36 -d -1 -p undefined -e 48 -c 2 -a 0 -i 0 -k MAC
r -t 0.003038821 -s 1 -d -1 -p undefined -e 48 -c 2 -a 0 -i 0 -k MAC
r -t 0.003038821 -s 28 -d -1 -p undefined -e 48 -c 2 -a 0 -i 0 -k MAC
r -t 0.003038841 -s 11 -d -1 -p undefined -e 48 -c 2 -a 0 -i 0 -k MAC
r -t 0.003038880 -s 2 -d -1 -p undefined -e 48 -c 2 -a 0 -i 0 -k MAC
r -t 0.003038880 -s 20 -d -1 -p undefined -e 48 -c 2 -a 0 -i 0 -k MAC
r -t 0.003038968 -s 3 -d -1 -p undefined -e 48 -c 2 -a 0 -i 0 -k MAC
r -t 0.003038968 -s 12 -d -1 -p undefined -e 48 -c 2 -a 0 -i 0 -k MAC
r -t 0.003038968 -s 37 -d -1 -p undefined -e 48 -c 2 -a 0 -i 0 -k MAC
r -t 0.003063301 -s 24 -d -1 -p undefined -e 48 -c 2 -a 0 -i 0 -k RTR
r -t 0.003063301 -s 33 -d -1 -p undefined -e 48 -c 2 -a 0 -i 0 -k RTR
r -t 0.003063370 -s 25 -d -1 -p undefined -e 48 -c 2 -a 0 -i 0 -k RTR
r -t 0.003063468 -s 16 -d -1 -p undefined -e 48 -c 2 -a 0 -i 0 -k RTR
r -t 0.003063468 -s 34 -d -1 -p undefined -e 48 -c 2 -a 0 -i 0 -k RTR
r -t 0.003063507 -s 17 -d -1 -p undefined -e 48 -c 2 -a 0 -i 0 -k RTR
r -t 0.003063507 -s 26 -d -1 -p undefined -e 48 -c 2 -a 0 -i 0 -k RTR
r -t 0.003063606 -s 18 -d -1 -p undefined -e 48 -c 2 -a 0 -i 0 -k RTR
r -t 0.003063634 -s 8 -d -1 -p undefined -e 48 -c 2 -a 0 -i 0 -k RTR
r -t 0.003063634 -s 35 -d -1 -p undefined -e 48 -c 2 -a 0 -i 0 -k RTR
r -t 0.003063661 -s 9 -d -1 -p undefined -e 48 -c 2 -a 0 -i 0 -k RTR
r -t 0.003063661 -s 27 -d -1 -p undefined -e 48 -c 2 -a 0 -i 0 -k RTR
r -t 0.003063735 -s 10 -d -1 -p undefined -e 48 -c 2 -a 0 -i 0 -k RTR
r -t 0.003063735 -s 19 -d -1 -p undefined -e 48 -c 2 -a 0 -i 0 -k RTR
r -t 0.003063801 -s 0 -d -1 -p undefined -e 48 -c 2 -a 0 -i 0 -k RTR
r -t 0.003063801 -s 36 -d -1 -p undefined -e 48 -c 2 -a 0 -i 0 -k RTR
r -t 0.003063821 -s 1 -d -1 -p undefined -e 48 -c 2 -a 0 -i 0 -k RTR
r -t 0.003063821 -s 28 -d -1 -p undefined -e 48 -c 2 -a 0 -i 0 -k RTR
r -t 0.003063841 -s 11 -d -1 -p undefined -e 48 -c 2 -a 0 -i 0 -k RTR
r -t 0.003063880 -s 2 -d -1 -p undefined -e 48 -c 2 -a 0 -i 0 -k RTR
r -t 0.003063880 -s 20 -d -1 -p undefined -e 48 -c 2 -a 0 -i 0 -k RTR
r -t 0.003063968 -s 3 -d -1 -p undefined -e 48 -c 2 -a 0 -i 0 -k RTR
r -t 0.003063968 -s 12 -d -1 -p undefined -e 48 -c 2 -a 0 -i 0 -k RTR
r -t 0.003063968 -s 37 -d -1 -p undefined -e 48 -c 2 -a 0 -i 0 -k RTR
+ -t 0.005404169 -s 14 -d -1 -p undefined -e 48 -c 2 -a 0 -i 1 -k RTR 
- -t 0.005404169 -s 14 -d -1 -p undefined -e 48 -c 2 -a 0 -i 1 -k RTR
h -t 0.005404169 -s 14 -d -1 -p undefined -e 48 -c 2 -a 0 -i 1 -k RTR
+ -t 0.005959169 -s 14 -d -1 -p undefined -e 106 -c 2 -a 0 -i 1 -k MAC 
- -t 0.005959169 -s 14 -d -1 -p undefined -e 106 -c 2 -a 0 -i 1 -k MAC
h -t 0.005959169 -s 14 -d -1 -p undefined -e 106 -c 2 -a 0 -i 1 -k MAC
r -t 0.006807336 -s 6 -d -1 -p undefined -e 48 -c 2 -a 0 -i 1 -k MAC
r -t 0.006807336 -s 13 -d -1 -p undefined -e 48 -c 2 -a 0 -i 1 -k MAC
r -t 0.006807336 -s 22 -d -1 -p undefined -e 48 -c 2 -a 0 -i 1 -k MAC
r -t 0.006807336 -s 15 -d -1 -p undefined -e 48 -c 2 -a 0 -i 1 -k MAC
r -t 0.006807405 -s 21 -d -1 -p undefined -e 48 -c 2 -a 0 -i 1 -k MAC
r -t 0.006807405 -s 5 -d -1 -p undefined -e 48 -c 2 -a 0 -i 1 -k MAC
r -t 0.006807405 -s 7 -d -1 -p undefined -e 48 -c 2 -a 0 -i 1 -k MAC
r -t 0.006807405 -s 23 -d -1 -p undefined -e 48 -c 2 -a 0 -i 1 -k MAC
r -t 0.006807502 -s 12 -d -1 -p undefined -e 48 -c 2 -a 0 -i 1 -k MAC
r -t 0.006807502 -s 30 -d -1 -p undefined -e 48 -c 2 -a 0 -i 1 -k MAC
r -t 0.006807542 -s 29 -d -1 -p undefined -e 48 -c 2 -a 0 -i 1 -k MAC
r -t 0.006807542 -s 20 -d -1 -p undefined -e 48 -c 2 -a 0 -i 1 -k MAC
r -t 0.006807542 -s 4 -d -1 -p undefined -e 48 -c 2 -a 0 -i 1 -k MAC
r -t 0.006807542 -s 31 -d -1 -p undefined -e 48 -c 2 -a 0 -i 1 -k MAC
r -t 0.006807641 -s 28 -d -1 -p undefined -e 48 -c 2 -a 0 -i 1 -k MAC
r -t 0.006807669 -s 11 -d -1 -p undefined -e 48 -c 2 -a 0 -i 1 -k MAC
r -t 0.006807669 -s 38 -d -1 -p undefined -e 48 -c 2 -a 0 -i 1 -k MAC
r -t 0.006807696 -s 37 -d -1 -p undefined -e 48 -c 2 -a 0 -i 1 -k MAC
r -t 0.006807696 -s 19 -d -1 -p undefined -e 48 -c 2 -a 0 -i 1 -k MAC
r -t 0.006807696 -s 3 -d -1 -p undefined -e 48 -c 2 -a 0 -i 1 -k MAC
r -t 0.006807696 -s 39 -d -1 -p undefined -e 48 -c 2 -a 0 -i 1 -k MAC
r -t 0.006807770 -s 36 -d -1 -p undefined -e 48 -c 2 -a 0 -i 1 -k MAC
r -t 0.006807770 -s 27 -d -1 -p undefined -e 48 -c 2 -a 0 -i 1 -k MAC
r -t 0.006807836 -s 10 -d -1 -p undefined -e 48 -c 2 -a 0 -i 1 -k MAC
r -t 0.006807856 -s 18 -d -1 -p undefined -e 48 -c 2 -a 0 -i 1 -k MAC
r -t 0.006807856 -s 2 -d -1 -p undefined -e 48 -c 2 -a 0 -i 1 -k MAC
r -t 0.006807876 -s 35 -d -1 -p undefined -e 48 -c 2 -a 0 -i 1 -k MAC
r -t 0.006807914 -s 26 -d -1 -p undefined -e 48 -c 2 -a 0 -i 1 -k MAC
r -t 0.006808002 -s 34 -d -1 -p undefined -e 48 -c 2 -a 0 -i 1 -k MAC
r -t 0.006808002 -s 9 -d -1 -p undefined -e 48 -c 2 -a 0 -i 1 -k MAC
r -t 0.006832336 -s 6 -d -1 -p undefined -e 48 -c 2 -a 0 -i 1 -k RTR
r -t 0.006832336 -s 13 -d -1 -p undefined -e 48 -c 2 -a 0 -i 1 -k RTR
r -t 0.006832336 -s 22 -d -1 -p undefined -e 48 -c 2 -a 0 -i 1 -k RTR
r -t 0.006832336 -s 15 -d -1 -p undefined -e 48 -c 2 -a 0 -i 1 -k RTR
r -t 0.006832405 -s 21 -d -1 -p undefined -e 48 -c 2 -a 0 -i 1 -k RTR
r -t 0.006832405 -s 5 -d -1 -p undefined -e 48 -c 2 -a 0 -i 1 -k RTR
r -t 0.006832405 -s 7 -d -1 -p undefined -e 48 -c 2 -a 0 -i 1 -k RTR
r -t 0.006832405 -s 23 -d -1 -p undefined -e 48 -c 2 -a 0 -i 1 -k RTR
r -t 0.006832502 -s 12 -d -1 -p undefined -e 48 -c 2 -a 0 -i 1 -k RTR
r -t 0.006832502 -s 30 -d -1 -p undefined -e 48 -c 2 -a 0 -i 1 -k RTR
r -t 0.006832542 -s 29 -d -1 -p undefined -e 48 -c 2 -a 0 -i 1 -k RTR
r -t 0.006832542 -s 20 -d -1 -p undefined -e 48 -c 2 -a 0 -i 1 -k RTR
r -t 0.006832542 -s 4 -d -1 -p undefined -e 48 -c 2 -a 0 -i 1 -k RTR
r -t 0.006832542 -s 31 -d -1 -p undefined -e 48 -c 2 -a 0 -i 1 -k RTR
r -t 0.006832641 -s 28 -d -1 -p undefined -e 48 -c 2 -a 0 -i 1 -k RTR
r -t 0.006832669 -s 11 -d -1 -p undefined -e 48 -c 2 -a 0 -i 1 -k RTR
r -t 0.006832669 -s 38 -d -1 -p undefined -e 48 -c 2 -a 0 -i 1 -k RTR
r -t 0.006832696 -s 37 -d -1 -p undefined -e 48 -c 2 -a 0 -i 1 -k RTR
r -t 0.006832696 -s 19 -d -1 -p undefined -e 48 -c 2 -a 0 -i 1 -k RTR
r -t 0.006832696 -s 3 -d -1 -p undefined -e 48 -c 2 -a 0 -i 1 -k RTR
r -t 0.006832696 -s 39 -d -1 -p undefined -e 48 -c 2 -a 0 -i 1 -k RTR
r -t 0.006832770 -s 36 -d -1 -p undefined -e 48 -c 2 -a 0 -i 1 -k RTR
r -t 0.006832770 -s 27 -d -1 -p undefined -e 48 -c 2 -a 0 -i 1 -k RTR
r -t 0.006832836 -s 10 -d -1 -p undefined -e 48 -c 2 -a 0 -i 1 -k RTR
r -t 0.006832856 -s 18 -d -1 -p undefined -e 48 -c 2 -a 0 -i 1 -k RTR
r -t 0.006832856 -s 2 -d -1 -p undefined -e 48 -c 2 -a 0 -i 1 -k RTR
r -t 0.006832876 -s 35 -d -1 -p undefined -e 48 -c 2 -a 0 -i 1 -k RTR
r -t 0.006832914 -s 26 -d -1 -p undefined -e 48 -c 2 -a 0 -i 1 -k RTR
r -t 0.006833002 -s 34 -d -1 -p undefined -e 48 -c 2 -a 0 -i 1 -k RTR
r -t 0.006833002 -s 9 -d -1 -p undefined -e 48 -c 2 -a 0 -i 1 -k RTR
+ -t 0.007102330 -s 0 -d -1 -p undefined -e 48 -c 2 -a 0 -i 2 -k RTR 
- -t 0.007102330 -s 0 -d -1 -p undefined -e 48 -c 2 -a 0 -i 2 -k RTR
h -t 0.007102330 -s 0 -d -1 -p undefined -e 48 -c 2 -a 0 -i 2 -k RTR
+ -t 0.007402183 -s 0 -d -1 -p undefined -e 106 -c 2 -a 0 -i 2 -k MAC 
- -t 0.007402183 -s 0 -d -1 -p undefined -e 106 -c 2 -a 0 -i 2 -k MAC
h -t 0.007402183 -s 0 -d -1 -p undefined -e 106 -c 2 -a 0 -i 2 -k MAC
r -t 0.008250350 -s 8 -d -1 -p undefined -e 48 -c 2 -a 0 -i 2 -k MAC
r -t 0.008250350 -s 1 -d -1 -p undefined -e 48 -c 2 -a 0 -i 2 -k MAC
r -t 0.008250419 -s 9 -d -1 -p undefined -e 48 -c 2 -a 0 -i 2 -k MAC
r -t 0.008250516 -s 16 -d -1 -p undefined -e 48 -c 2 -a 0 -i 2 -k MAC
r -t 0.008250516 -s 2 -d -1 -p undefined -e 48 -c 2 -a 0 -i 2 -k MAC
r -t 0.008250556 -s 17 -d -1 -p undefined -e 48 -c 2 -a 0 -i 2 -k MAC
r -t 0.008250556 -s 10 -d -1 -p undefined -e 48 -c 2 -a 0 -i 2 -k MAC
r -t 0.008250654 -s 18 -d -1 -p undefined -e 48 -c 2 -a 0 -i 2 -k MAC
r -t 0.008250683 -s 24 -d -1 -p undefined -e 48 -c 2 -a 0 -i 2 -k MAC
r -t 0.008250683 -s 3 -d -1 -p undefined -e 48 -c 2 -a 0 -i 2 -k MAC
r -t 0.008250710 -s 25 -d -1 -p undefined -e 48 -c 2 -a 0 -i 2 -k MAC
r -t 0.008250710 -s 11 -d -1 -p undefined -e 48 -c 2 -a 0 -i 2 -k MAC
r -t 0.008250784 -s 26 -d -1 -p undefined -e 48 -c 2 -a 0 -i 2 -k MAC
r -t 0.008250784 -s 19 -d -1 -p undefined -e 48 -c 2 -a 0 -i 2 -k MAC
r -t 0.008250850 -s 32 -d -1 -p undefined -e 48 -c 2 -a 0 -i 2 -k MAC
r -t 0.008250850 -s 4 -d -1 -p undefined -e 48 -c 2 -a 0 -i 2 -k MAC
r -t 0.008250870 -s 33 -d -1 -p undefined -e 48 -c 2 -a 0 -i 2 -k MAC
r -t 0.008250870 -s 12 -d -1 -p undefined -e 48 -c 2 -a 0 -i 2 -k MAC
r -t 0.008250890 -s 27 -d -1 -p undefined -e 48 -c 2 -a 0 -i 2 -k MAC
r -t 0.008250928 -s 34 -d -1 -p undefined -e 48 -c 2 -a 0 -i 2 -k MAC
r -t 0.008250928 -s 20 -d -1 -p undefined -e 48 -c 2 -a 0 -i 2 -k MAC
r -t 0.008251016 -s 35 -d -1 -p undefined -e 48 -c 2 -a 0 -i 2 -k MAC
r -t 0.008251016 -s 28 -d -1 -p undefined -e 48 -c 2 -a 0 -i 2 -k MAC
r -t 0.008251016 -s 5 -d -1 -p undefined -e 48 -c 2 -a 0 -i 2 -k MAC
r -t 0.008275350 -s 8 -d -1 -p undefined -e 48 -c 2 -a 0 -i 2 -k RTR
r -t 0.008275350 -s 1 -d -1 -p undefined -e 48 -c 2 -a 0 -i 2 -k RTR
r -t 0.008275419 -s 9 -d -1 -p undefined -e 48 -c 2 -a 0 -i 2 -k RTR
r -t 0.008275516 -s 16 -d -1 -p undefined -e 48 -c 2 -a 0 -i 2 -k RTR
r -t 0.008275516 -s 2 -d -1 -p undefined -e 48 -c 2 -a 0 -i 2 -k RTR
r -t 0.008275556 -s 17 -d -1 -p undefined -e 48 -c 2 -a 0 -i 2 -k RTR
r -t 0.008275556 -s 10 -d -1 -p undefined -e 48 -c 2 -a 0 -i 2 -k RTR
r -t 0.008275654 -s 18 -d -1 -p undefined -e 48 -c 2 -a 0 -i 2 -k RTR
r -t 0.008275683 -s 24 -d -1 -p undefined -e 48 -c 2 -a 0 -i 2 -k RTR
r -t 0.008275683 -s 3 -d -1 -p undefined -e 48 -c 2 -a 0 -i 2 -k RTR
r -t 0.008275710 -s 25 -d -1 -p undefined -e 48 -c 2 -a 0 -i 2 -k RTR
r -t 0.008275710 -s 11 -d -1 -p undefined -e 48 -c 2 -a 0 -i 2 -k RTR
r -t 0.008275784 -s 26 -d -1 -p undefined -e 48 -c 2 -a 0 -i 2 -k RTR
r -t 0.008275784 -s 19 -d -1 -p undefined -e 48 -c 2 -a 0 -i 2 -k RTR
r -t 0.008275850 -s 32 -d -1 -p undefined -e 48 -c 2 -a 0 -i 2 -k RTR
r -t 0.008275850 -s 4 -d -1 -p undefined -e 48 -c 2 -a 0 -i 2 -k RTR
r -t 0.008275870 -s 33 -d -1 -p undefined -e 48 -c 2 -a 0 -i 2 -k RTR
r -t 0.008275870 -s 12 -d -1 -p undefined -e 48 -c 2 -a 0 -i 2 -k RTR
r -t 0.008275890 -s 27 -d -1 -p undefined -e 48 -c 2 -a 0 -i 2 -k RTR
r -t 0.008275928 -s 34 -d -1 -p undefined -e 48 -c 2 -a 0 -i 2 -k RTR
r -t 0.008275928 -s 20 -d -1 -p undefined -e 48 -c 2 -a 0 -i 2 -k RTR
r -t 0.008276016 -s 35 -d -1 -p undefined -e 48 -c 2 -a 0 -i 2 -k RTR
r -t 0.008276016 -s 28 -d -1 -p undefined -e 48 -c 2 -a 0 -i 2 -k RTR
r -t 0.008276016 -s 5 -d -1 -p undefined -e 48 -c 2 -a 0 -i 2 -k RTR
+ -t 0.013778736 -s 18 -d -1 -p undefined -e 48 -c 2 -a 0 -i 3 -k RTR 
- -t 0.013778736 -s 18 -d -1 -p undefined -e 48 -c 2 -a 0 -i 3 -k RTR
h -t 0.013778736 -s 18 -d -1 -p undefined -e 48 -c 2 -a 0 -i 3 -k RTR
+ -t 0.014033736 -s 18 -d -1 -p undefined -e 106 -c 2 -a 0 -i 3 -k MAC 
- -t 0.014033736 -s 18 -d -1 -p undefined -e 106 -c 2 -a 0 -i 3 -k MAC
h -t 0.014033736 -s 18 -d -1 -p undefined -e 106 -c 2 -a 0 -i 3 -k MAC
r -t 0.014881903 -s 10 -d -1 -p undefined -e 48 -c 2 -a 0 -i 3 -k MAC
r -t 0.014881903 -s 17 -d -1 -p undefined -e 48 -c 2 -a 0 -i 3 -k MAC
r -t 0.014881903 -s 26 -d -1 -p undefined -e 48 -c 2 -a 0 -i 3 -k MAC
r -t 0.014881903 -s 19 -d -1 -p undefined -e 48 -c 2 -a 0 -i 3 -k MAC
r -t 0.014881972 -s 25 -d -1 -p undefined -e 48 -c 2 -a 0 -i 3 -k MAC
r -t 0.014881972 -s 9 -d -1 -p undefined -e 48 -c 2 -a 0 -i 3 -k MAC
r -t 0.014881972 -s 11 -d -1 -p undefined -e 48 -c 2 -a 0 -i 3 -k MAC
r -t 0.014881972 -s 27 -d -1 -p undefined -e 48 -c 2 -a 0 -i 3 -k MAC
r -t 0.014882070 -s 2 -d -1 -p undefined -e 48 -c 2 -a 0 -i 3 -k MAC
r -t 0.014882070 -s 16 -d -1 -p undefined -e 48 -c 2 -a 0 -i 3 -k MAC
r -t 0.014882070 -s 34 -d -1 -p undefined -e 48 -c 2 -a 0 -i 3 -k MAC
r -t 0.014882070 -s 20 -d -1 -p undefined -e 48 -c 2 -a 0 -i 3 -k MAC
r -t 0.014882109 -s 33 -d -1 -p undefined -e 48 -c 2 -a 0 -i 3 -k MAC
r -t 0.014882109 -s 1 -d -1 -p undefined -e 48 -c 2 -a 0 -i 3 -k MAC
r -t 0.014882109 -s 24 -d -1 -p undefined -e 48 -c 2 -a 0 -i 3 -k MAC
r -t 0.014882109 -s 8 -d -1 -p undefined -e 48 -c 2 -a 0 -i 3 -k MAC
r -t 0.014882109 -s 3 -d -1 -p undefined -e 48 -c 2 -a 0 -i 3 -k MAC
r -t 0.014882109 -s 35 -d -1 -p undefined -e 48 -c 2 -a 0 -i 3 -k MAC
r -t 0.014882109 -s 12 -d -1 -p undefined -e 48 -c 2 -a 0 -i 3 -k MAC
r -t 0.014882109 -s 28 -d -1 -p undefined -e 48 -c 2 -a 0 -i 3 -k MAC
r -t 0.014882208 -s 32 -d -1 -p undefined -e 48 -c 2 -a 0 -i 3 -k MAC
r -t 0.014882208 -s 0 -d -1 -p undefined -e 48 -c 2 -a 0 -i 3 -k MAC
r -t 0.014882208 -s 4 -d -1 -p undefined -e 48 -c 2 -a 0 -i 3 -k MAC
r -t 0.014882208 -s 36 -d -1 -p undefined -e 48 -c 2 -a 0 -i 3 -k MAC
r -t 0.014882236 -s 21 -d -1 -p undefined -e 48 -c 2 -a 0 -i 3 -k MAC
r -t 0.014882263 -s 13 -d -1 -p undefined -e 48 -c 2 -a 0 -i 3 -k MAC
r -t 0.014882263 -s 29 -d -1 -p undefined -e 48 -c 2 -a 0 -i 3 -k MAC
r -t 0.014882337 -s 5 -d -1 -p undefined -e 48 -c 2 -a 0 -i 3 -k MAC
r -t 0.014882337 -s 37 -d -1 -p undefined -e 48 -c 2 -a 0 -i 3 -k MAC
r -t 0.014882403 -s 22 -d -1 -p undefined -e 48 -c 2 -a 0 -i 3 -k MAC
r -t 0.014882423 -s 14 -d -1 -p undefined -e 48 -c 2 -a 0 -i 3 -k MAC
r -t 0.014882423 -s 30 -d -1 -p undefined -e 48 -c 2 -a 0 -i 3 -k MAC
r -t 0.014882482 -s 6 -d -1 -p undefined -e 48 -c 2 -a 0 -i 3 -k MAC
r -t 0.014882482 -s 38 -d -1 -p undefined -e 48 -c 2 -a 0 -i 3 -k MAC
r -t 0.014882570 -s 23 -d -1 -p undefined -e 48 -c 2 -a 0 -i 3 -k MAC
r -t 0.014906903 -s 10 -d -1 -p undefined -e 48 -c 2 -a 0 -i 3 -k RTR
r -t 0.014906903 -s 17 -d -1 -p undefined -e 48 -c 2 -a 0 -i 3 -k RTR
r -t 0.014906903 -s 26 -d -1 -p undefined -e 48 -c 2 -a 0 -i 3 -k RTR
r -t 0.014906903 -s 19 -d -1 -p undefined -e 48 -c 2 -a 0 -i 3 -k RTR
r -t 0.014906972 -s 25 -d -1 -p undefined -e 48 -c 2 -a 0 -i 3 -k RTR
r -t 0.014906972 -s 9 -d -1 -p undefined -e 48 -c 2 -a 0 -i 3 -k RTR
r -t 0.014906972 -s 11 -d -1 -p undefined -e 48 -c 2 -a 0 -i 3 -k RTR
r -t 0.014906972 -s 27 -d -1 -p undefined -e 48 -c 2 -a 0 -i 3 -k RTR
r -t 0.014907070 -s 2 -d -1 -p undefined -e 48 -c 2 -a 0 -i 3 -k RTR
r -t 0.014907070 -s 16 -d -1 -p undefined -e 48 -c 2 -a 0 -i 3 -k RTR
r -t 0.014907070 -s 34 -d -1 -p undefined -e 48 -c 2 -a 0 -i 3 -k RTR
r -t 0.014907070 -s 20 -d -1 -p undefined -e 48 -c 2 -a 0 -i 3 -k RTR
r -t 0.014907109 -s 33 -d -1 -p undefined -e 48 -c 2 -a 0 -i 3 -k RTR
r -t 0.014907109 -s 1 -d -1 -p undefined -e 48 -c 2 -a 0 -i 3 -k RTR
r -t 0.014907109 -s 24 -d -1 -p undefined -e 48 -c 2 -a 0 -i 3 -k RTR
r -t 0.014907109 -s 8 -d -1 -p undefined -e 48 -c 2 -a 0 -i 3 -k RTR
r -t 0.014907109 -s 3 -d -1 -p undefined -e 48 -c 2 -a 0 -i 3 -k RTR
r -t 0.014907109 -s 35 -d -1 -p undefined -e 48 -c 2 -a 0 -i 3 -k RTR
r -t 0.014907109 -s 12 -d -1 -p undefined -e 48 -c 2 -a 0 -i 3 -k RTR
r -t 0.014907109 -s 28 -d -1 -p undefined -e 48 -c 2 -a 0 -i 3 -k RTR
r -t 0.014907208 -s 32 -d -1 -p undefined -e 48 -c 2 -a 0 -i 3 -k RTR
r -t 0.014907208 -s 0 -d -1 -p undefined -e 48 -c 2 -a 0 -i 3 -k RTR
r -t 0.014907208 -s 4 -d -1 -p undefined -e 48 -c 2 -a 0 -i 3 -k RTR
r -t 0.014907208 -s 36 -d -1 -p undefined -e 48 -c 2 -a 0 -i 3 -k RTR
r -t 0.014907236 -s 21 -d -1 -p undefined -e 48 -c 2 -a 0 -i 3 -k RTR
r -t 0.014907263 -s 13 -d -1 -p undefined -e 48 -c 2 -a 0 -i 3 -k RTR
r -t 0.014907263 -s 29 -d -1 -p undefined -e 48 -c 2 -a 0 -i 3 -k RTR
r -t 0.014907337 -s 5 -d -1 -p undefined -e 48 -c 2 -a 0 -i 3 -k RTR
r -t 0.014907337 -s 37 -d -1 -p undefined -e 48 -c 2 -a 0 -i 3 -k RTR
r -t 0.014907403 -s 22 -d -1 -p undefined -e 48 -c 2 -a 0 -i 3 -k RTR
r -t 0.014907423 -s 14 -d -1 -p undefined -e 48 -c 2 -a 0 -i 3 -k RTR
r -t 0.014907423 -s 30 -d -1 -p undefined -e 48 -c 2 -a 0 -i 3 -k RTR
r -t 0.014907482 -s 6 -d -1 -p undefined -e 48 -c 2 -a 0 -i 3 -k RTR
r -t 0.014907482 -s 38 -d -1 -p undefined -e 48 -c 2 -a 0 -i 3 -k RTR
r -t 0.014907570 -s 23 -d -1 -p undefined -e 48 -c 2 -a 0 -i 3 -k RTR
+ -t 0.015970714 -s 34 -d -1 -p undefined -e 48 -c 2 -a 0 -i 4 -k RTR 
- -t 0.015970714 -s 34 -d -1 -p undefined -e 48 -c 2 -a 0 -i 4 -k RTR
h -t 0.015970714 -s 34 -d -1 -p undefined -e 48 -c 2 -a 0 -i 4 -k RTR
+ -t 0.016285714 -s 34 -d -1 -p undefined -e 106 -c 2 -a 0 -i 4 -k MAC 
- -t 0.016285714 -s 34 -d -1 -p undefined -e 106 -c 2 -a 0 -i 4 -k MAC
h -t 0.016285714 -s 34 -d -1 -p undefined -e 106 -c 2 -a 0 -i 4 -k MAC
+ -t 0.016396178 -s 31 -d -1 -p undefined -e 48 -c 2 -a 0 -i 5 -k RTR 
- -t 0.016396178 -s 31 -d -1 -p undefined -e 48 -c 2 -a 0 -i 5 -k RTR
h -t 0.016396178 -s 31 -d -1 -p undefined -e 48 -c 2 -a 0 -i 5 -k RTR
r -t 0.017133881 -s 26 -d -1 -p undefined -e 48 -c 2 -a 0 -i 4 -k MAC
r -t 0.017133881 -s 33 -d -1 -p undefined -e 48 -c 2 -a 0 -i 4 -k MAC
r -t 0.017133881 -s 35 -d -1 -p undefined -e 48 -c 2 -a 0 -i 4 -k MAC
r -t 0.017133950 -s 25 -d -1 -p undefined -e 48 -c 2 -a 0 -i 4 -k MAC
r -t 0.017133950 -s 27 -d -1 -p undefined -e 48 -c 2 -a 0 -i 4 -k MAC
r -t 0.017134047 -s 18 -d -1 -p undefined -e 48 -c 2 -a 0 -i 4 -k MAC
r -t 0.017134047 -s 32 -d -1 -p undefined -e 48 -c 2 -a 0 -i 4 -k MAC
r -t 0.017134047 -s 36 -d -1 -p undefined -e 48 -c 2 -a 0 -i 4 -k MAC
r -t 0.017134087 -s 17 -d -1 -p undefined -e 48 -c 2 -a 0 -i 4 -k MAC
r -t 0.017134087 -s 24 -d -1 -p undefined -e 48 -c 2 -a 0 -i 4 -k MAC
r -t 0.017134087 -s 19 -d -1 -p undefined -e 48 -c 2 -a 0 -i 4 -k MAC
r -t 0.017134087 -s 28 -d -1 -p undefined -e 48 -c 2 -a 0 -i 4 -k MAC
r -t 0.017134186 -s 16 -d -1 -p undefined -e 48 -c 2 -a 0 -i 4 -k MAC
r -t 0.017134186 -s 20 -d -1 -p undefined -e 48 -c 2 -a 0 -i 4 -k MAC
r -t 0.017134214 -s 10 -d -1 -p undefined -e 48 -c 2 -a 0 -i 4 -k MAC
r -t 0.017134214 -s 37 -d -1 -p undefined -e 48 -c 2 -a 0 -i 4 -k MAC
r -t 0.017134241 -s 9 -d -1 -p undefined -e 48 -c 2 -a 0 -i 4 -k MAC
r -t 0.017134241 -s 11 -d -1 -p undefined -e 48 -c 2 -a 0 -i 4 -k MAC
r -t 0.017134241 -s 29 -d -1 -p undefined -e 48 -c 2 -a 0 -i 4 -k MAC
r -t 0.017134315 -s 8 -d -1 -p undefined -e 48 -c 2 -a 0 -i 4 -k MAC
r -t 0.017134315 -s 12 -d -1 -p undefined -e 48 -c 2 -a 0 -i 4 -k MAC
r -t 0.017134315 -s 21 -d -1 -p undefined -e 48 -c 2 -a 0 -i 4 -k MAC
r -t 0.017134381 -s 2 -d -1 -p undefined -e 48 -c 2 -a 0 -i 4 -k MAC
r -t 0.017134381 -s 38 -d -1 -p undefined -e 48 -c 2 -a 0 -i 4 -k MAC
r -t 0.017134401 -s 1 -d -1 -p undefined -e 48 -c 2 -a 0 -i 4 -k MAC
r -t 0.017134401 -s 3 -d -1 -p undefined -e 48 -c 2 -a 0 -i 4 -k MAC
r -t 0.017134401 -s 30 -d -1 -p undefined -e 48 -c 2 -a 0 -i 4 -k MAC
r -t 0.017134421 -s 13 -d -1 -p undefined -e 48 -c 2 -a 0 -i 4 -k MAC
r -t 0.017134459 -s 0 -d -1 -p undefined -e 48 -c 2 -a 0 -i 4 -k MAC
r -t 0.017134459 -s 4 -d -1 -p undefined -e 48 -c 2 -a 0 -i 4 -k MAC
r -t 0.017134459 -s 22 -d -1 -p undefined -e 48 -c 2 -a 0 -i 4 -k MAC
r -t 0.017134547 -s 5 -d -1 -p undefined -e 48 -c 2 -a 0 -i 4 -k MAC
r -t 0.017134547 -s 14 -d -1 -p undefined -e 48 -c 2 -a 0 -i 4 -k MAC
r -t 0.017134547 -s 39 -d -1 -p undefined -e 48 -c 2 -a 0 -i 4 -k MAC
r -t 0.017158881 -s 26 -d -1 -p undefined -e 48 -c 2 -a 0 -i 4 -k RTR
r -t 0.017158881 -s 33 -d -1 -p undefined -e 48 -c 2 -a 0 -i 4 -k RTR
r -t 0.017158881 -s 35 -d -1 -p undefined -e 48 -c 2 -a 0 -i 4 -k RTR
r -t 0.017158950 -s 25 -d -1 -p undefined -e 48 -c 2 -a 0 -i 4 -k RTR
r -t 0.017158950 -s 27 -d -1 -p undefined -e 48 -c 2 -a 0 -i 4 -k RTR
r -t 0.017159047 -s 18 -d -1 -p undefined -e 48 -c 2 -a 0 -i 4 -k RTR
r -t 0.017159047 -s 32 -d -1 -p undefined -e 48 -c 2 -a 0 -i 4 -k RTR
r -t 0.017159047 -s 36 -d -1 -p undefined -e 48 -c 2 -a 0 -i 4 -k RTR
r -t 0.017159087 -s 17 -d -1 -p undefined -e 48 -c 2 -a 0 -i 4 -k RTR
r -t 0.017159087 -s 24 -d -1 -p undefined -e 48 -c 2 -a 0 -i 4 -k RTR
r -t 0.017159087 -s 19 -d -1 -p undefined -e 48 -c 2 -a 0 -i 4 -k RTR
r -t 0.017159087 -s 28 -d -1 -p undefined -e 48 -c 2 -a 0 -i 4 -k RTR
r -t 0.017159186 -s 16 -d -1 -p undefined -e 48 -c 2 -a 0 -i 4 -k RTR
r -t 0.017159186 -s 20 -d -1 -p undefined -e 48 -c 2 -a 0 -i 4 -k RTR
r -t 0.017159214 -s 10 -d -1 -p undefined -e 48 -c 2 -a 0 -i 4 -k RTR
r -t 0.017159214 -s 37 -d -1 -p undefined -e 48 -c 2 -a 0 -i 4 -k RTR
r -t 0.017159241 -s 9 -d -1 -p undefined -e 48 -c 2 -a 0 -i 4 -k RTR
r -t 0.017159241 -s 11 -d -1 -p undefined -e 48 -c 2 -a 0 -i 4 -k RTR
r -t 0.017159241 -s 29 -d -1 -p undefined -e 48 -c 2 -a 0 -i 4 -k RTR
r -t 0.017159315 -s 8 -d -1 -p undefined -e 48 -c 2 -a 0 -i 4 -k RTR
r -t 0.017159315 -s 12 -d -1 -p undefined -e 48 -c 2 -a 0 -i 4 -k RTR
r -t 0.017159315 -s 21 -d -1 -p undefined -e 48 -c 2 -a 0 -i 4 -k RTR
r -t 0.017159381 -s 2 -d -1 -p undefined -e 48 -c 2 -a 0 -i 4 -k RTR
r -t 0.017159381 -s 38 -d -1 -p undefined -e 48 -c 2 -a 0 -i 4 -k RTR
r -t 0.017159401 -s 1 -d -1 -p undefined -e 48 -c 2 -a 0 -i 4 -k RTR
r -t 0.017159401 -s 3 -d -1 -p undefined -e 48 -c 2 -a 0 -i 4 -k RTR
r -t 0.017159401 -s 30 -d -1 -p undefined -e 48 -c 2 -a 0 -i 4 -k RTR
r -t 0.017159421 -s 13 -d -1 -p undefined -e 48 -c 2 -a 0 -i 4 -k RTR
r -t 0.017159459 -s 0 -d -1 -p undefined -e 48 -c 2 -a 0 -i 4 -k RTR
r -t 0.017159459 -s 4 -d -1 -p undefined -e 48 -c 2 -a 0 -i 4 -k RTR
r -t 0.017159459 -s 22 -d -1 -p undefined -e 48 -c 2 -a 0 -i 4 -k RTR
r -t 0.017159547 -s 5 -d -1 -p undefined -e 48 -c 2 -a 0 -i 4 -k RTR
r -t 0.017159547 -s 14 -d -1 -p undefined -e 48 -c 2 -a 0 -i 4 -k RTR
r -t 0.017159547 -s 39 -d -1 -p undefined -e 48 -c 2 -a 0 -i 4 -k RTR
+ -t 0.017548564 -s 31 -d -1 -p undefined -e 106 -c 2 -a 0 -i 5 -k MAC 
- -t 0.017548564 -s 31 -d -1 -p undefined -e 106 -c 2 -a 0 -i 5 -k MAC
h -t 0.017548564 -s 31 -d -1 -p undefined -e 106 -c 2 -a 0 -i 5 -k MAC
r -t 0.018396731 -s 23 -d -1 -p undefined -e 48 -c 2 -a 0 -i 5 -k MAC
r -t 0.018396731 -s 30 -d -1 -p undefined -e 48 -c 2 -a 0 -i 5 -k MAC
r -t 0.018396731 -s 39 -d -1 -p undefined -e 48 -c 2 -a 0 -i 5 -k MAC
r -t 0.018396800 -s 38 -d -1 -p undefined -e 48 -c 2 -a 0 -i 5 -k MAC
r -t 0.018396800 -s 22 -d -1 -p undefined -e 48 -c 2 -a 0 -i 5 -k MAC
r -t 0.018396897 -s 15 -d -1 -p undefined -e 48 -c 2 -a 0 -i 5 -k MAC
r -t 0.018396897 -s 29 -d -1 -p undefined -e 48 -c 2 -a 0 -i 5 -k MAC
r -t 0.018396937 -s 14 -d -1 -p undefined -e 48 -c 2 -a 0 -i 5 -k MAC
r -t 0.018396937 -s 37 -d -1 -p undefined -e 48 -c 2 -a 0 -i 5 -k MAC
r -t 0.018396937 -s 21 -d -1 -p undefined -e 48 -c 2 -a 0 -i 5 -k MAC
r -t 0.018397035 -s 13 -d -1 -p undefined -e 48 -c 2 -a 0 -i 5 -k MAC
r -t 0.018397064 -s 7 -d -1 -p undefined -e 48 -c 2 -a 0 -i 5 -k MAC
r -t 0.018397064 -s 28 -d -1 -p undefined -e 48 -c 2 -a 0 -i 5 -k MAC
r -t 0.018397091 -s 6 -d -1 -p undefined -e 48 -c 2 -a 0 -i 5 -k MAC
r -t 0.018397091 -s 36 -d -1 -p undefined -e 48 -c 2 -a 0 -i 5 -k MAC
r -t 0.018397091 -s 20 -d -1 -p undefined -e 48 -c 2 -a 0 -i 5 -k MAC
r -t 0.018397165 -s 5 -d -1 -p undefined -e 48 -c 2 -a 0 -i 5 -k MAC
r -t 0.018397165 -s 12 -d -1 -p undefined -e 48 -c 2 -a 0 -i 5 -k MAC
r -t 0.018397231 -s 27 -d -1 -p undefined -e 48 -c 2 -a 0 -i 5 -k MAC
r -t 0.018397251 -s 35 -d -1 -p undefined -e 48 -c 2 -a 0 -i 5 -k MAC
r -t 0.018397251 -s 19 -d -1 -p undefined -e 48 -c 2 -a 0 -i 5 -k MAC
r -t 0.018397271 -s 4 -d -1 -p undefined -e 48 -c 2 -a 0 -i 5 -k MAC
r -t 0.018397309 -s 11 -d -1 -p undefined -e 48 -c 2 -a 0 -i 5 -k MAC
r -t 0.018397397 -s 3 -d -1 -p undefined -e 48 -c 2 -a 0 -i 5 -k MAC
r -t 0.018397397 -s 26 -d -1 -p undefined -e 48 -c 2 -a 0 -i 5 -k MAC
r -t 0.018421731 -s 23 -d -1 -p undefined -e 48 -c 2 -a 0 -i 5 -k RTR
r -t 0.018421731 -s 30 -d -1 -p undefined -e 48 -c 2 -a 0 -i 5 -k RTR
r -t 0.018421731 -s 39 -d -1 -p undefined -e 48 -c 2 -a 0 -i 5 -k RTR
r -t 0.018421800 -s 38 -d -1 -p undefined -e 48 -c 2 -a 0 -i 5 -k RTR
r -t 0.018421800 -s 22 -d -1 -p undefined -e 48 -c 2 -a 0 -i 5 -k RTR
r -t 0.018421897 -s 15 -d -1 -p undefined -e 48 -c 2 -a 0 -i 5 -k RTR
r -t 0.018421897 -s 29 -d -1 -p undefined -e 48 -c 2 -a 0 -i 5 -k RTR
r -t 0.018421937 -s 14 -d -1 -p undefined -e 48 -c 2 -a 0 -i 5 -k RTR
r -t 0.018421937 -s 37 -d -1 -p undefined -e 48 -c 2 -a 0 -i 5 -k RTR
r -t 0.018421937 -s 21 -d -1 -p undefined -e 48 -c 2 -a 0 -i 5 -k RTR
r -t 0.018422035 -s 13 -d -1 -p undefined -e 48 -c 2 -a 0 -i 5 -k RTR
r -t 0.018422064 -s 7 -d -1 -p undefined -e 48 -c 2 -a 0 -i 5 -k RTR
r -t 0.018422064 -s 28 -d -1 -p undefined -e 48 -c 2 -a 0 -i 5 -k RTR
r -t 0.018422091 -s 6 -d -1 -p undefined -e 48 -c 2 -a 0 -i 5 -k RTR
r -t 0.018422091 -s 36 -d -1 -p undefined -e 48 -c 2 -a 0 -i 5 -k RTR
r -t 0.018422091 -s 20 -d -1 -p undefined -e 48 -c 2 -a 0 -i 5 -k RTR
r -t 0.018422165 -s 5 -d -1 -p undefined -e 48 -c 2 -a 0 -i 5 -k RTR
r -t 0.018422165 -s 12 -d -1 -p undefined -e 48 -c 2 -a 0 -i 5 -k RTR
r -t 0.018422231 -s 27 -d -1 -p undefined -e 48 -c 2 -a 0 -i 5 -k RTR
r -t 0.018422251 -s 35 -d -1 -p undefined -e 48 -c 2 -a 0 -i 5 -k RTR
r -t 0.018422251 -s 19 -d -1 -p undefined -e 48 -c 2 -a 0 -i 5 -k RTR
r -t 0.018422271 -s 4 -d -1 -p undefined -e 48 -c 2 -a 0 -i 5 -k RTR
r -t 0.018422309 -s 11 -d -1 -p undefined -e 48 -c 2 -a 0 -i 5 -k RTR
r -t 0.018422397 -s 3 -d -1 -p undefined -e 48 -c 2 -a 0 -i 5 -k RTR
r -t 0.018422397 -s 26 -d -1 -p undefined -e 48 -c 2 -a 0 -i 5 -k RTR
+ -t 0.025066702 -s 22 -d -1 -p undefined -e 48 -c 2 -a 0 -i 6 -k RTR 
- -t 0.025066702 -s 22 -d -1 -p undefined -e 48 -c 2 -a 0 -i 6 -k RTR
h -t 0.025066702 -s 22 -d -1 -p undefined -e 48 -c 2 -a 0 -i 6 -k RTR
+ -t 0.025681702 -s 22 -d -1 -p undefined -e 106 -c 2 -a 0 -i 6 -k MAC 
- -t 0.025681702 -s 22 -d -1 -p undefined -e 106 -c 2 -a 0 -i 6 -k MAC
h -t 0.025681702 -s 22 -d -1 -p undefined -e 106 -c 2 -a 0 -i 6 -k MAC
r -t 0.026529869 -s 14 -d -1 -p undefined -e 48 -c 2 -a 0 -i 6 -k MAC
r -t 0.026529869 -s 21 -d -1 -p undefined -e 48 -c 2 -a 0 -i 6 -k MAC
r -t 0.026529869 -s 30 -d -1 -p undefined -e 48 -c 2 -a 0 -i 6 -k MAC
r -t 0.026529869 -s 23 -d -1 -p undefined -e 48 -c 2 -a 0 -i 6 -k MAC
r -t 0.026529938 -s 29 -d -1 -p undefined -e 48 -c 2 -a 0 -i 6 -k MAC
r -t 0.026529938 -s 13 -d -1 -p undefined -e 48 -c 2 -a 0 -i 6 -k MAC
r -t 0.026529938 -s 15 -d -1 -p undefined -e 48 -c 2 -a 0 -i 6 -k MAC
r -t 0.026529938 -s 31 -d -1 -p undefined -e 48 -c 2 -a 0 -i 6 -k MAC