s -t 0.005404169 -Hs 14 -Hd -1 -Ni 14 -Nx 522.00 -Ny 325.00 -Nz 0.00 -Ne -1.000000 -Nl RTR -Nw --- -Ma 0 -Md 0 -Ms 0 -Mt 0 -Is 14.255 -Id -1.255 -It undefined -Il 48 -If 0 -Ii 0 -Iv 32 -P olsr -Pn 1 -Ps 0 [-Pt HELLO -Po 14 -Ph 0 -Pms 0] 
s -t 0.005499169 -Hs 14 -Hd -1 -Ni 14 -Nx 522.00 -Ny 325.00 -Nz 0.00 -Ne -1.000000 -Nl MAC -Nw --- -Ma 0 -Md ffffffff -Ms e -Mt 800 -Is 14.255 -Id -1.255 -It undefined -Il 106 -If 0 -Ii 0 -Iv 32 -P olsr -Pn 1 -Ps 0 [-Pt HELLO -Po 14 -Ph 0 -Pms 0] 
r -t 0.006347336 -Hs 9 -Hd -1 -Ni 9 -Nx 522.00 -Ny 375.00 -Nz 0.00 -Ne -1.000000 -Nl MAC -Nw --- -Ma 0 -Md ffffffff -Ms e -Mt 800 -Is 14.255 -Id -1.255 -It undefined -Il 48 -If 0 -Ii 0 -Iv 32 -P olsr -Pn 1 -Ps 0 [-Pt HELLO -Po 14 -Ph 0 -Pms 0] 
r -t 0.006347336 -Hs 13 -Hd -1 -Ni 13 -Nx 472.00 -Ny 325.00 -Nz 0.00 -Ne -1.000000 -Nl MAC -Nw --- -Ma 0 -Md ffffffff -Ms e -Mt 800 -Is 14.255 -Id -1.255 -It undefined -Il 48 -If 0 -Ii 0 -Iv 32 -P olsr -Pn 1 -Ps 0 [-Pt HELLO -Po 14 -Ph 0 -Pms 0] 
r -t 0.006347336 -Hs 19 -Hd -1 -Ni 19 -Nx 522.00 -Ny 275.00 -Nz 0.00 -Ne -1.000000 -Nl MAC -Nw --- -Ma 0 -Md ffffffff -Ms e -Mt 800 -Is 14.255 -Id -1.255 -It undefined -Il 48 -If 0 -Ii 0 -Iv 32 -P olsr -Pn 1 -Ps 0 [-Pt HELLO -Po 14 -Ph 0 -Pms 0] 
r -t 0.006347405 -Hs 18 -Hd -1 -Ni 18 -Nx 472.00 -Ny 275.00 -Nz 0.00 -Ne -1.000000 -Nl MAC -Nw --- -Ma 0 -Md ffffffff -Ms e -Mt 800 -Is 14.255 -Id -1.255 -It undefined -Il 48 -If 0 -Ii 0 -Iv 32 -P olsr -Pn 1 -Ps 0 [-Pt HELLO -Po 14 -Ph 0 -Pms 0] 
r -t 0.006347405 -Hs 8 -Hd -1 -Ni 8 -Nx 472.00 -Ny 375.00 -Nz 0.00 -Ne -1.000000 -Nl MAC -Nw --- -Ma 0 -Md ffffffff -Ms e -Mt 800 -Is 14.255 -Id -1.255 -It undefined -Il 48 -If 0 -Ii 0 -Iv 32 -P olsr -Pn 1 -Ps 0 [-Pt HELLO -Po 14 -Ph 0 -Pms 0] 
r -t 0.006347502 -Hs 4 -Hd -1 -Ni 4 -Nx 522.00 -Ny 425.00 -Nz 0.00 -Ne -1.000000 -Nl MAC -Nw --- -Ma 0 -Md ffffffff -Ms e -Mt 800 -Is 14.255 -Id -1.255 -It undefined -Il 48 -If 0 -Ii 0 -Iv 32 -P olsr -Pn 1 -Ps 0 [-Pt HELLO -Po 14 -Ph 0 -Pms 0] 
r -t 0.006347502 -Hs 12 -Hd -1 -Ni 12 -Nx 422.00 -Ny 325.00 -Nz 0.00 -Ne -1.000000 -Nl MAC -Nw --- -Ma 0 -Md ffffffff -Ms e -Mt 800 -Is 14.255 -Id -1.255 -It undefined -Il 48 -If 0 -Ii 0 -Iv 32 -P olsr -Pn 1 -Ps 0 [-Pt HELLO -Po 14 -Ph 0 -Pms 0] 
r -t 0.006347542 -Hs 3 -Hd -1 -Ni 3 -Nx 472.00 -Ny 425.00 -Nz 0.00 -Ne -1.000000 -Nl MAC -Nw --- -Ma 0 -Md ffffffff -Ms e -Mt 800 -Is 14.255 -Id -1.255 -It undefined -Il 48 -If 0 -Ii 0 -Iv 32 -P olsr -Pn 1 -Ps 0 [-Pt HELLO -Po 14 -Ph 0 -Pms 0] 
r -t 0.006347542 -Hs 17 -Hd -1 -Ni 17 -Nx 422.00 -Ny 275.00 -Nz 0.00 -Ne -1.000000 -Nl MAC -Nw --- -Ma 0 -Md ffffffff -Ms e -Mt 800 -Is 14.255 -Id -1.255 -It undefined -Il 48 -If 0 -Ii 0 -Iv 32 -P olsr -Pn 1 -Ps 0 [-Pt HELLO -Po 14 -Ph 0 -Pms 0] 
r -t 0.006347542 -Hs 7 -Hd -1 -Ni 7 -Nx 422.00 -Ny 375.00 -Nz 0.00 -Ne -1.000000 -Nl MAC -Nw --- -Ma 0 -Md ffffffff -Ms e -Mt 800 -Is 14.255 -Id -1.255 -It undefined -Il 48 -If 0 -Ii 0 -Iv 32 -P olsr -Pn 1 -Ps 0 [-Pt HELLO -Po 14 -Ph 0 -Pms 0] 
r -t 0.006347641 -Hs 2 -Hd -1 -Ni 2 -Nx 422.00 -Ny 425.00 -Nz 0.00 -Ne -1.000000 -Nl MAC -Nw --- -Ma 0 -Md ffffffff -Ms e -Mt 800 -Is 14.255 -Id -1.255 -It undefined -Il 48 -If 0 -Ii 0 -Iv 32 -P olsr -Pn 1 -Ps 0 [-Pt HELLO -Po 14 -Ph 0 -Pms 0] 
r -t 0.006347669 -Hs 11 -Hd -1 -Ni 11 -Nx 372.00 -Ny 325.00 -Nz 0.00 -Ne -1.000000 -Nl MAC -Nw --- -Ma 0 -Md ffffffff -Ms e -Mt 800 -Is 14.255 -Id -1.255 -It undefined -Il 48 -If 0 -Ii 0 -Iv 32 -P olsr -Pn 1 -Ps 0 [-Pt HELLO -Po 14 -Ph 0 -Pms 0] 
r -t 0.006347696 -Hs 16 -Hd -1 -Ni 16 -Nx 372.00 -Ny 275.00 -Nz 0.00 -Ne -1.000000 -Nl MAC -Nw --- -Ma 0 -Md ffffffff -Ms e -Mt 800 -Is 14.255 -Id -1.255 -It undefined -Il 48 -If 0 -Ii 0 -Iv 32 -P olsr -Pn 1 -Ps 0 [-Pt HELLO -Po 14 -Ph 0 -Pms 0] 
r -t 0.006347696 -Hs 6 -Hd -1 -Ni 6 -Nx 372.00 -Ny 375.00 -Nz 0.00 -Ne -1.000000 -Nl MAC -Nw --- -Ma 0 -Md ffffffff -Ms e -Mt 800 -Is 14.255 -Id -1.255 -It undefined -Il 48 -If 0 -Ii 0 -Iv 32 -P olsr -Pn 1 -Ps 0 [-Pt HELLO -Po 14 -Ph 0 -Pms 0] 
r -t 0.006347770 -Hs 1 -Hd -1 -Ni 1 -Nx 372.00 -Ny 425.00 -Nz 0.00 -Ne -1.000000 -Nl MAC -Nw --- -Ma 0 -Md ffffffff -Ms e -Mt 800 -Is 14.255 -Id -1.255 -It undefined -Il 48 -If 0 -Ii 0 -Iv 32 -P olsr -Pn 1 -Ps 0 [-Pt HELLO -Po 14 -Ph 0 -Pms 0] 
r -t 0.006347836 -Hs 10 -Hd -1 -Ni 10 -Nx 322.00 -Ny 325.00 -Nz 0.00 -Ne -1.000000 -Nl MAC -Nw --- -Ma 0 -Md ffffffff -Ms e -Mt 800 -Is 14.255 -Id -1.255 -It undefined -Il 48 -If 0 -Ii 0 -Iv 32 -P olsr -Pn 1 -Ps 0 [-Pt HELLO -Po 14 -Ph 0 -Pms 0] 
r -t 0.006347856 -Hs 15 -Hd -1 -Ni 15 -Nx 322.00 -Ny 275.00 -Nz 0.00 -Ne -1.000000 -Nl MAC -Nw --- -Ma 0 -Md ffffffff -Ms e -Mt 800 -Is 14.255 -Id -1.255 -It undefined -Il 48 -If 0 -Ii 0 -Iv 32 -P olsr -Pn 1 -Ps 0 [-Pt HELLO -Po 14 -Ph 0 -Pms 0] 
r -t 0.006347856 -Hs 5 -Hd -1 -Ni 5 -Nx 322.00 -Ny 375.00 -Nz 0.00 -Ne -1.000000 -Nl MAC -Nw --- -Ma 0 -Md ffffffff -Ms e -Mt 800 -Is 14.255 -Id -1.255 -It undefined -Il 48 -If 0 -Ii 0 -Iv 32 -P olsr -Pn 1 -Ps 0 [-Pt HELLO -Po 14 -Ph 0 -Pms 0] 
r -t 0.006347914 -Hs 0 -Hd -1 -Ni 0 -Nx 322.00 -Ny 425.00 -Nz 0.00 -Ne -1.000000 -Nl MAC -Nw --- -Ma 0 -Md ffffffff -Ms e -Mt 800 -Is 14.255 -Id -1.255 -It undefined -Il 48 -If 0 -Ii 0 -Iv 32 -P olsr -Pn 1 -Ps 0 [-Pt HELLO -Po 14 -Ph 0 -Pms 0] 
r -t 0.006372336 -Hs 9 -Hd -1 -Ni 9 -Nx 522.00 -Ny 375.00 -Nz 0.00 -Ne -1.000000 -Nl RTR -Nw --- -Ma 0 -Md ffffffff -Ms e -Mt 800 -Is 14.255 -Id -1.255 -It undefined -Il 48 -If 0 -Ii 0 -Iv 32 -P olsr -Pn 1 -Ps 0 [-Pt HELLO -Po 14 -Ph 0 -Pms 0] 
r -t 0.006372336 -Hs 13 -Hd -1 -Ni 13 -Nx 472.00 -Ny 325.00 -Nz 0.00 -Ne -1.000000 -Nl RTR -Nw --- -Ma 0 -Md ffffffff -Ms e -Mt 800 -Is 14.255 -Id -1.255 -It undefined -Il 48 -If 0 -Ii 0 -Iv 32 -P olsr -Pn 1 -Ps 0 [-Pt HELLO -Po 14 -Ph 0 -Pms 0] 
r -t 0.006372336 -Hs 19 -Hd -1 -Ni 19 -Nx 522.00 -Ny 275.00 -Nz 0.00 -Ne -1.000000 -Nl RTR -Nw --- -Ma 0 -Md ffffffff -Ms e -Mt 800 -Is 14.255 -Id -1.255 -It undefined -Il 48 -If 0 -Ii 0 -Iv 32 -P olsr -Pn 1 -Ps 0 [-Pt HELLO -Po 14 -Ph 0 -Pms 0] 
r -t 0.006372405 -Hs 18 -Hd -1 -Ni 18 -Nx 472.00 -Ny 275.00 -Nz 0.00 -Ne -1.000000 -Nl RTR -Nw --- -Ma 0 -Md ffffffff -Ms e -Mt 800 -Is 14.255 -Id -1.255 -It undefined -Il 48 -If 0 -Ii 0 -Iv 32 -P olsr -Pn 1 -Ps 0 [-Pt HELLO -Po 14 -Ph 0 -Pms 0] 
r -t 0.006372405 -Hs 8 -Hd -1 -Ni 8 -Nx 472.00 -Ny 375.00 -Nz 0.00 -Ne -1.000000 -Nl RTR -Nw --- -Ma 0 -Md ffffffff -Ms e -Mt 800 -Is 14.255 -Id -1.255 -It undefined -Il 48 -If 0 -Ii 0 -Iv 32 -P olsr -Pn 1 -Ps 0 [-Pt HELLO -Po 14 -Ph 0 -Pms 0] 
r -t 0.006372502 -Hs 4 -Hd -1 -Ni 4 -Nx 522.00 -Ny 425.00 -Nz 0.00 -Ne -1.000000 -Nl RTR -Nw --- -Ma 0 -Md ffffffff -Ms e -Mt 800 -Is 14.255 -Id -1.255 -It undefined -Il 48 -If 0 -Ii 0 -Iv 32 -P olsr -Pn 1 -Ps 0 [-Pt HELLO -Po 14 -Ph 0 -Pms 0] 
r -t 0.006372502 -Hs 12 -Hd -1 -Ni 12 -Nx 422.00 -Ny 325.00 -Nz 0.00 -Ne -1.000000 -Nl RTR -Nw --- -Ma 0 -Md ffffffff -Ms e -Mt 800 -Is 14.255 -Id -1.255 -It undefined -Il 48 -If 0 -Ii 0 -Iv 32 -P olsr -Pn 1 -Ps 0 [-Pt HELLO -Po 14 -Ph 0 -Pms 0] 
r -t 0.006372542 -Hs 3 -Hd -1 -Ni 3 -Nx 472.00 -Ny 425.00 -Nz 0.00 -Ne -1.000000 -Nl RTR -Nw --- -Ma 0 -Md ffffffff -Ms e -Mt 800 -Is 14.255 -Id -1.255 -It undefined -Il 48 -If 0 -Ii 0 -Iv 32 -P olsr -Pn 1 -Ps 0 [-Pt HELLO -Po 14 -Ph 0 -Pms 0] 
r -t 0.006372542 -Hs 17 -Hd -1 -Ni 17 -Nx 422.00 -Ny 275.00 -Nz 0.00 -Ne -1.000000 -Nl RTR -Nw --- -Ma 0 -Md ffffffff -Ms e -Mt 800 -Is 14.255 -Id -1.255 -It undefined -Il 48 -If 0 -Ii 0 -Iv 32 -P olsr -Pn 1 -Ps 0 [-Pt HELLO -Po 14 -Ph 0 -Pms 0] 
r -t 0.006372542 -Hs 7 -Hd -1 -Ni 7 -Nx 422.00 -Ny 375.00 -Nz 0.00 -Ne -1.000000 -Nl RTR -Nw --- -Ma 0 -Md ffffffff -Ms e -Mt 800 -Is 14.255 -Id -1.255 -It undefined -Il 48 -If 0 -Ii 0 -Iv 32 -P olsr -Pn 1 -Ps 0 [-Pt HELLO -Po 14 -Ph 0 -Pms 0] 
r -t 0.006372641 -Hs 2 -Hd -1 -Ni 2 -Nx 422.00 -Ny 425.00 -Nz 0.00 -Ne -1.000000 -Nl RTR -Nw --- -Ma 0 -Md ffffffff -Ms e -Mt 800 -Is 14.255 -Id -1.255 -It undefined -Il 48 -If 0 -Ii 0 -Iv 32 -P olsr -Pn 1 -Ps 0 [-Pt HELLO -Po 14 -Ph 0 -Pms 0] 
r -t 0.006372669 -Hs 11 -Hd -1 -Ni 11 -Nx 372.00 -Ny 325.00 -Nz 0.00 -Ne -1.000000 -Nl RTR -Nw --- -Ma 0 -Md ffffffff -Ms e -Mt 800 -Is 14.255 -Id -1.255 -It undefined -Il 48 -If 0 -Ii 0 -Iv 32 -P olsr -Pn 1 -Ps 0 [-Pt HELLO -Po 14 -Ph 0 -Pms 0] 
r -t 0.006372696 -Hs 16 -Hd -1 -Ni 16 -Nx 372.00 -Ny 275.00 -Nz 0.00 -Ne -1.000000 -Nl RTR -Nw --- -Ma 0 -Md ffffffff -Ms e -Mt 800 -Is 14.255 -Id -1.255 -It undefined -Il 48 -If 0 -Ii 0 -Iv 32 -P olsr -Pn 1 -Ps 0 [-Pt HELLO -Po 14 -Ph 0 -Pms 0] 
r -t 0.006372696 -Hs 6 -Hd -1 -Ni 6 -Nx 372.00 -Ny 375.00 -Nz 0.00 -Ne -1.000000 -Nl RTR -Nw --- -Ma 0 -Md ffffffff -Ms e -Mt 800 -Is 14.255 -Id -1.255 -It undefined -Il 48 -If 0 -Ii 0 -Iv 32 -P olsr -Pn 1 -Ps 0 [-Pt HELLO -Po 14 -Ph 0 -Pms 0] 
r -t 0.006372770 -Hs 1 -Hd -1 -Ni 1 -Nx 372.00 -Ny 425.00 -Nz 0.00 -Ne -1.000000 -Nl RTR -Nw --- -Ma 0 -Md ffffffff -Ms e -Mt 800 -Is 14.255 -Id -1.255 -It undefined -Il 48 -If 0 -Ii 0 -Iv 32 -P olsr -Pn 1 -Ps 0 [-Pt HELLO -Po 14 -Ph 0 -Pms 0] 
r -t 0.006372836 -Hs 10 -Hd -1 -Ni 10 -Nx 322.00 -Ny 325.00 -Nz 0.00 -Ne -1.000000 -Nl RTR -Nw --- -Ma 0 -Md ffffffff -Ms e -Mt 800 -Is 14.255 -Id -1.255 -It undefined -Il 48 -If 0 -Ii 0 -Iv 32 -P olsr -Pn 1 -Ps 0 [-Pt HELLO -Po 14 -Ph 0 -Pms 0] 
r -t 0.006372856 -Hs 15 -Hd -1 -Ni 15 -Nx 322.00 -Ny 275.00 -Nz 0.00 -Ne -1.000000 -Nl RTR -Nw --- -Ma 0 -Md ffffffff -Ms e -Mt 800 -Is 14.255 -Id -1.255 -It undefined -Il 48 -If 0 -Ii 0 -Iv 32 -P olsr -Pn 1 -Ps 0 [-Pt HELLO -Po 14 -Ph 0 -Pms 0] 
r -t 0.006372856 -Hs 5 -Hd -1 -Ni 5 -Nx 322.00 -Ny 375.00 -Nz 0.00 -Ne -1.000000 -Nl RTR -Nw --- -Ma 0 -Md ffffffff -Ms e -Mt 800 -Is 14.255 -Id -1.255 -It undefined -Il 48 -If 0 -Ii 0 -Iv 32 -P olsr -Pn 1 -Ps 0 [-Pt HELLO -Po 14 -Ph 0 -Pms 0] 
r -t 0.006372914 -Hs 0 -Hd -1 -Ni 0 -Nx 322.00 -Ny 425.00 -Nz 0.00 -Ne -1.000000 -Nl RTR -Nw --- -Ma 0 -Md ffffffff -Ms e -Mt 800 -Is 14.255 -Id -1.255 -It undefined -Il 48 -If 0 -Ii 0 -Iv 32 -P olsr -Pn 1 -Ps 0 [-Pt HELLO -Po 14 -Ph 0 -Pms 0] 
s -t 0.007102330 -Hs 0 -Hd -1 -Ni 0 -Nx 322.00 -Ny 425.00 -Nz 0.00 -Ne -1.000000 -Nl RTR -Nw --- -Ma 0 -Md 0 -Ms 0 -Mt 0 -Is 0.255 -Id -1.255 -It undefined -Il 48 -If 0 -Ii 1 -Iv 32 -P olsr -Pn 1 -Ps 0 [-Pt HELLO -Po 0 -Ph 0 -Pms 0] 
s -t 0.007417330 -Hs 0 -Hd -1 -Ni 0 -Nx 322.00 -Ny 425.00 -Nz 0.00 -Ne -1.000000 -Nl MAC -Nw --- -Ma 0 -Md ffffffff -Ms 0 -Mt 800 -Is 0.255 -Id -1.255 -It undefined -Il 106 -If 0 -Ii 1 -Iv 32 -P olsr -Pn 1 -Ps 0 [-Pt HELLO -Po 0 -Ph 0 -Pms 0] 
r -t 0.008265497 -Hs 5 -Hd -1 -Ni 5 -Nx 322.00 -Ny 375.00 -Nz 0.00 -Ne -1.000000 -Nl MAC -Nw --- -Ma 0 -Md ffffffff -Ms 0 -Mt 800 -Is 0.255 -Id -1.255 -It undefined -Il 48 -If 0 -Ii 1 -Iv 32 -P olsr -Pn 1 -Ps 0 [-Pt HELLO -Po 0 -Ph 0 -Pms 0] 
r -t 0.008265497 -Hs 1 -Hd -1 -Ni 1 -Nx 372.00 -Ny 425.00 -Nz 0.00 -Ne -1.000000 -Nl MAC -Nw --- -Ma 0 -Md ffffffff -Ms 0 -Mt 800 -Is 0.255 -Id -1.255 -It undefined -Il 48 -If 0 -Ii 1 -Iv 32 -P olsr -Pn 1 -Ps 0 [-Pt HELLO -Po 0 -Ph 0 -Pms 0] 
r -t 0.008265566 -Hs 6 -Hd -1 -Ni 6 -Nx 372.00 -Ny 375.00 -Nz 0.00 -Ne -1.000000 -Nl MAC -Nw --- -Ma 0 -Md ffffffff -Ms 0 -Mt 800 -Is 0.255 -Id -1.255 -It undefined -Il 48 -If 0 -Ii 1 -Iv 32 -P olsr -Pn 1 -Ps 0 [-Pt HELLO -Po 0 -Ph 0 -Pms 0] 
r -t 0.008265664 -Hs 10 -Hd -1 -Ni 10 -Nx 322.00 -Ny 325.00 -Nz 0.00 -Ne -1.000000 -Nl MAC -Nw --- -Ma 0 -Md ffffffff -Ms 0 -Mt 800 -Is 0.255 -Id -1.255 -It undefined -Il 48 -If 0 -Ii 1 -Iv 32 -P olsr -Pn 1 -Ps 0 [-Pt HELLO -Po 0 -Ph 0 -Pms 0] 
r -t 0.008265664 -Hs 2 -Hd -1 -Ni 2 -Nx 422.00 -Ny 425.00 -Nz 0.00 -Ne -1.000000 -Nl MAC -Nw --- -Ma 0 -Md ffffffff -Ms 0 -Mt 800 -Is 0.255 -Id -1.255 -It undefined -Il 48 -If 0 -Ii 1 -Iv 32 -P olsr -Pn 1 -Ps 0 [-Pt HELLO -Po 0 -Ph 0 -Pms 0] 
r -t 0.008265703 -Hs 11 -Hd -1 -Ni 11 -Nx 372.00 -Ny 325.00 -Nz 0.00 -Ne -1.000000 -Nl MAC -Nw --- -Ma 0 -Md ffffffff -Ms 0 -Mt 800 -Is 0.255 -Id -1.255 -It undefined -Il 48 -If 0 -Ii 1 -Iv 32 -P olsr -Pn 1 -Ps 0 [-Pt HELLO -Po 0 -Ph 0 -Pms 0] 
r -t 0.008265703 -Hs 7 -Hd -1 -Ni 7 -Nx 422.00 -Ny 375.00 -Nz 0.00 -Ne -1.000000 -Nl MAC -Nw --- -Ma 0 -Md ffffffff -Ms 0 -Mt 800 -Is 0.255 -Id -1.255 -It undefined -Il 48 -If 0 -Ii 1 -Iv 32 -P olsr -Pn 1 -Ps 0 [-Pt HELLO -Po 0 -Ph 0 -Pms 0] 
r -t 0.008265802 -Hs 12 -Hd -1 -Ni 12 -Nx 422.00 -Ny 325.00 -Nz 0.00 -Ne -1.000000 -Nl MAC -Nw --- -Ma 0 -Md ffffffff -Ms 0 -Mt 800 -Is 0.255 -Id -1.255 -It undefined -Il 48 -If 0 -Ii 1 -Iv 32 -P olsr -Pn 1 -Ps 0 [-Pt HELLO -Po 0 -Ph 0 -Pms 0] 
r -t 0.008265830 -Hs 15 -Hd -1 -Ni 15 -Nx 322.00 -Ny 275.00 -Nz 0.00 -Ne -1.000000 -Nl MAC -Nw --- -Ma 0 -Md ffffffff -Ms 0 -Mt 800 -Is 0.255 -Id -1.255 -It undefined -Il 48 -If 0 -Ii 1 -Iv 32 -P olsr -Pn 1 -Ps 0 [-Pt HELLO -Po 0 -Ph 0 -Pms 0] 
r -t 0.008265830 -Hs 3 -Hd -1 -Ni 3 -Nx 472.00 -Ny 425.00 -Nz 0.00 -Ne -1.000000 -Nl MAC -Nw --- -Ma 0 -Md ffffffff -Ms 0 -Mt 800 -Is 0.255 -Id -1.255 -It undefined -Il 48 -If 0 -Ii 1 -Iv 32 -P olsr -Pn 1 -Ps 0 [-Pt HELLO -Po 0 -Ph 0 -Pms 0] 
r -t 0.008265857 -Hs 16 -Hd -1 -Ni 16 -Nx 372.00 -Ny 275.00 -Nz 0.00 -Ne -1.000000 -Nl MAC -Nw --- -Ma 0 -Md ffffffff -Ms 0 -Mt 800 -Is 0.255 -Id -1.255 -It undefined -Il 48 -If 0 -Ii 1 -Iv 32 -P olsr -Pn 1 -Ps 0 [-Pt HELLO -Po 0 -Ph 0 -Pms 0] 
r -t 0.008265857 -Hs 8 -Hd -1 -Ni 8 -Nx 472.00 -Ny 375.00 -Nz 0.00 -Ne -1.000000 -Nl MAC -Nw --- -Ma 0 -Md ffffffff -Ms 0 -Mt 800 -Is 0.255 -Id -1.255 -It undefined -Il 48 -If 0 -Ii 1 -Iv 32 -P olsr -Pn 1 -Ps 0 [-Pt HELLO -Po 0 -Ph 0 -Pms 0] 
r -t 0.008265931 -Hs 17 -Hd -1 -Ni 17 -Nx 422.00 -Ny 275.00 -Nz 0.00 -Ne -1.000000 -Nl MAC -Nw --- -Ma 0 -Md ffffffff -Ms 0 -Mt 800 -Is 0.255 -Id -1.255 -It undefined -Il 48 -If 0 -Ii 1 -Iv 32 -P olsr -Pn 1 -Ps 0 [-Pt HELLO -Po 0 -Ph 0 -Pms 0] 
r -t 0.008265931 -Hs 13 -Hd -1 -Ni 13 -Nx 472.00 -Ny 325.00 -Nz 0.00 -Ne -1.000000 -Nl MAC -Nw --- -Ma 0 -Md ffffffff -Ms 0 -Mt 800 -Is 0.255 -Id -1.255 -It undefined -Il 48 -If 0 -Ii 1 -Iv 32 -P olsr -Pn 1 -Ps 0 [-Pt HELLO -Po 0 -Ph 0 -Pms 0] 
r -t 0.008265997 -Hs 4 -Hd -1 -Ni 4 -Nx 522.00 -Ny 425.00 -Nz 0.00 -Ne -1.000000 -Nl MAC -Nw --- -Ma 0 -Md ffffffff -Ms 0 -Mt 800 -Is 0.255 -Id -1.255 -It undefined -Il 48 -If 0 -Ii 1 -Iv 32 -P olsr -Pn 1 -Ps 0 [-Pt HELLO -Po 0 -Ph 0 -Pms 0] 
r -t 0.008266018 -Hs 9 -Hd -1 -Ni 9 -Nx 522.00 -Ny 375.00 -Nz 0.00 -Ne -1.000000 -Nl MAC -Nw --- -Ma 0 -Md ffffffff -Ms 0 -Mt 800 -Is 0.255 -Id -1.255 -It undefined -Il 48 -If 0 -Ii 1 -Iv 32 -P olsr -Pn 1 -Ps 0 [-Pt HELLO -Po 0 -Ph 0 -Pms 0] 
r -t 0.008266037 -Hs 18 -Hd -1 -Ni 18 -Nx 472.00 -Ny 275.00 -Nz 0.00 -Ne -1.000000 -Nl MAC -Nw --- -Ma 0 -Md ffffffff -Ms 0 -Mt 800 -Is 0.255 -Id -1.255 -It undefined -Il 48 -If 0 -Ii 1 -Iv 32 -P olsr -Pn 1 -Ps 0 [-Pt HELLO -Po 0 -Ph 0 -Pms 0] 
r -t 0.008266076 -Hs 14 -Hd -1 -Ni 14 -Nx 522.00 -Ny 325.00 -Nz 0.00 -Ne -1.000000 -Nl MAC -Nw --- -Ma 0 -Md ffffffff -Ms 0 -Mt 800 -Is 0.255 -Id -1.255 -It undefined -Il 48 -If 0 -Ii 1 -Iv 32 -P olsr -Pn 1 -Ps 0 [-Pt HELLO -Po 0 -Ph 0 -Pms 0] 
r -t 0.008266164 -Hs 19 -Hd -1 -Ni 19 -Nx 522.00 -Ny 275.00 -Nz 0.00 -Ne -1.000000 -Nl MAC -Nw --- -Ma 0 -Md ffffffff -Ms 0 -Mt 800 -Is 0.255 -Id -1.255 -It undefined -Il 48 -If 0 -Ii 1 -Iv 32 -P olsr -Pn 1 -Ps 0 [-Pt HELLO -Po 0 -Ph 0 -Pms 0] 
r -t 0.008290497 -Hs 5 -Hd -1 -Ni 5 -Nx 322.00 -Ny 375.00 -Nz 0.00 -Ne -1.000000 -Nl RTR -Nw --- -Ma 0 -Md ffffffff -Ms 0 -Mt 800 -Is 0.255 -Id -1.255 -It undefined -Il 48 -If 0 -Ii 1 -Iv 32 -P olsr -Pn 1 -Ps 0 [-Pt HELLO -Po 0 -Ph 0 -Pms 0] 
r -t 0.008290497 -Hs 1 -Hd -1 -Ni 1 -Nx 372.00 -Ny 425.00 -Nz 0.00 -Ne -1.000000 -Nl RTR -Nw --- -Ma 0 -Md ffffffff -Ms 0 -Mt 800 -Is 0.255 -Id -1.255 -It undefined -Il 48 -If 0 -Ii 1 -Iv 32 -P olsr -Pn 1 -Ps 0 [-Pt HELLO -Po 0 -Ph 0 -Pms 0] 
r -t 0.008290566 -Hs 6 -Hd -1 -Ni 6 -Nx 372.00 -Ny 375.00 -Nz 0.00 -Ne -1.000000 -Nl RTR -Nw --- -Ma 0 -Md ffffffff -Ms 0 -Mt 800 -Is 0.255 -Id -1.255 -It undefined -Il 48 -If 0 -Ii 1 -Iv 32 -P olsr -Pn 1 -Ps 0 [-Pt HELLO -Po 0 -Ph 0 -Pms 0] 
r -t 0.008290664 -Hs 10 -Hd -1 -Ni 10 -Nx 322.00 -Ny 325.00 -Nz 0.00 -Ne -1.000000 -Nl RTR -Nw --- -Ma 0 -Md ffffffff -Ms 0 -Mt 800 -Is 0.255 -Id -1.255 -It undefined -Il 48 -If 0 -Ii 1 -Iv 32 -P olsr -Pn 1 -Ps 0 [-Pt HELLO -Po 0 -Ph 0 -Pms 0] 
r -t 0.008290664 -Hs 2 -Hd -1 -Ni 2 -Nx 422.00 -Ny 425.00 -Nz 0.00 -Ne -1.000000 -Nl RTR -Nw --- -Ma 0 -Md ffffffff -Ms 0 -Mt 800 -Is 0.255 -Id -1.255 -It undefined -Il 48 -If 0 -Ii 1 -Iv 32 -P olsr -Pn 1 -Ps 0 [-Pt HELLO -Po 0 -Ph 0 -Pms 0] 
r -t 0.008290703 -Hs 11 -Hd -1 -Ni 11 -Nx 372.00 -Ny 325.00 -Nz 0.00 -Ne -1.000000 -Nl RTR -Nw --- -Ma 0 -Md ffffffff -Ms 0 -Mt 800 -Is 0.255 -Id -1.255 -It undefined -Il 48 -If 0 -Ii 1 -Iv 32 -P olsr -Pn 1 -Ps 0 [-Pt HELLO -Po 0 -Ph 0 -Pms 0] 
r -t 0.008290703 -Hs 7 -Hd -1 -Ni 7 -Nx 422.00 -Ny 375.00 -Nz 0.00 -Ne -1.000000 -Nl RTR -Nw --- -Ma 0 -Md ffffffff -Ms 0 -Mt 800 -Is 0.255 -Id -1.255 -It undefined -Il 48 -If 0 -Ii 1 -Iv 32 -P olsr -Pn 1 -Ps 0 [-Pt HELLO -Po 0 -Ph 0 -Pms 0] 
r -t 0.008290802 -Hs 12 -Hd -1 -Ni 12 -Nx 422.00 -Ny 325.00 -Nz 0.00 -Ne -1.000000 -Nl RTR -Nw --- -Ma 0 -Md ffffffff -Ms 0 -Mt 800 -Is 0.255 -Id -1.255 -It undefined -Il 48 -If 0 -Ii 1 -Iv 32 -P olsr -Pn 1 -Ps 0 [-Pt HELLO -Po 0 -Ph 0 -Pms 0] 
r -t 0.008290830 -Hs 15 -Hd -1 -Ni 15 -Nx 322.00 -Ny 275.00 -Nz 0.00 -Ne -1.000000 -Nl RTR -Nw --- -Ma 0 -Md ffffffff -Ms 0 -Mt 800 -Is 0.255 -Id -1.255 -It undefined -Il 48 -If 0 -Ii 1 -Iv 32 -P olsr -Pn 1 -Ps 0 [-Pt HELLO -Po 0 -Ph 0 -Pms 0] 
r -t 0.008290830 -Hs 3 -Hd -1 -Ni 3 -Nx 472.00 -Ny 425.00 -Nz 0.00 -Ne -1.000000 -Nl RTR -Nw --- -Ma 0 -Md ffffffff -Ms 0 -Mt 800 -Is 0.255 -Id -1.255 -It undefined -Il 48 -If 0 -Ii 1 -Iv 32 -P olsr -Pn 1 -Ps 0 [-Pt HELLO -Po 0 -Ph 0 -Pms 0] 
r -t 0.008290857 -Hs 16 -Hd -1 -Ni 16 -Nx 372.00 -Ny 275.00 -Nz 0.00 -Ne -1.000000 -Nl RTR -Nw --- -Ma 0 -Md ffffffff -Ms 0 -Mt 800 -Is 0.255 -Id -1.255 -It undefined -Il 48 -If 0 -Ii 1 -Iv 32 -P olsr -Pn 1 -Ps 0 [-Pt HELLO -Po 0 -Ph 0 -Pms 0] 
r -t 0.008290857 -Hs 8 -Hd -1 -Ni 8 -Nx 472.00 -Ny 375.00 -Nz 0.00 -Ne -1.000000 -Nl RTR -Nw --- -Ma 0 -Md ffffffff -Ms 0 -Mt 800 -Is 0.255 -Id -1.255 -It undefined -Il 48 -If 0 -Ii 1 -Iv 32 -P olsr -Pn 1 -Ps 0 [-Pt HELLO -Po 0 -Ph 0 -Pms 0] 
r -t 0.008290931 -Hs 17 -Hd -1 -Ni 17 -Nx 422.00 -Ny 275.00 -Nz 0.00 -Ne -1.000000 -Nl RTR -Nw --- -Ma 0 -Md ffffffff -Ms 0 -Mt 800 -Is 0.255 -Id -1.255 -It undefined -Il 48 -If 0 -Ii 1 -Iv 32 -P olsr -Pn 1 -Ps 0 [-Pt HELLO -Po 0 -Ph 0 -Pms 0] 
r -t 0.008290931 -Hs 13 -Hd -1 -Ni 13 -Nx 472.00 -Ny 325.00 -Nz 0.00 -Ne -1.000000 -Nl RTR -Nw --- -Ma 0 -Md ffffffff -Ms 0 -Mt 800 -Is 0.255 -Id -1.255 -It undefined -Il 48 -If 0 -Ii 1 -Iv 32 -P olsr -Pn 1 -Ps 0 [-Pt HELLO -Po 0 -Ph 0 -Pms 0] 
r -t 0.008290997 -Hs 4 -Hd -1 -Ni 4 -Nx 522.00 -Ny 425.00 -Nz 0.00 -Ne -1.000000 -Nl RTR -Nw --- -Ma 0 -Md ffffffff -Ms 0 -Mt 800 -Is 0.255 -Id -1.255 -It undefined -Il 48 -If 0 -Ii 1 -Iv 32 -P olsr -Pn 1 -Ps 0 [-Pt HELLO -Po 0 -Ph 0 -Pms 0] 
r -t 0.008291018 -Hs 9 -Hd -1 -Ni 9 -Nx 522.00 -Ny 375.00 -Nz 0.00 -Ne -1.000000 -Nl RTR -Nw --- -Ma 0 -Md ffffffff -Ms 0 -Mt 800 -Is 0.255 -Id -1.255 -It undefined -Il 48 -If 0 -Ii 1 -Iv 32 -P olsr -Pn 1 -Ps 0 [-Pt HELLO -Po 0 -Ph 0 -Pms 0] 
r -t 0.008291037 -Hs 18 -Hd -1 -Ni 18 -Nx 472.00 -Ny 275.00 -Nz 0.00 -Ne -1.000000 -Nl RTR -Nw --- -Ma 0 -Md ffffffff -Ms 0 -Mt 800 -Is 0.255 -Id -1.255 -It undefined -Il 48 -If 0 -Ii 1 -Iv 32 -P olsr -Pn 1 -Ps 0 [-Pt HELLO -Po 0 -Ph 0 -Pms 0] 
r -t 0.008291076 -Hs 14 -Hd -1 -Ni 14 -Nx 522.00 -Ny 325.00 -Nz 0.00 -Ne -1.000000 -Nl RTR -Nw --- -Ma 0 -Md ffffffff -Ms 0 -Mt 800 -Is 0.255 -Id -1.255 -It undefined -Il 48 -If 0 -Ii 1 -Iv 32 -P olsr -Pn 1 -Ps 0 [-Pt HELLO -Po 0 -Ph 0 -Pms 0] 
r -t 0.008291164 -Hs 19 -Hd -1 -Ni 19 -Nx 522.00 -Ny 275.00 -Nz 0.00 -Ne -1.000000 -Nl RTR -Nw --- -Ma 0 -Md ffffffff -Ms 0 -Mt 800 -Is 0.255 -Id -1.255 -It undefined -Il 48 -If 0 -Ii 1 -Iv 32 -P olsr -Pn 1 -Ps 0 [-Pt HELLO -Po 0 -Ph 0 -Pms 0] 
s -t 0.013778736 -Hs 18 -Hd -1 -Ni 18 -Nx 472.00 -Ny 275.00 -Nz 0.00 -Ne -1.000000 -Nl RTR -Nw --- -Ma 0 -Md 0 -Ms 0 -Mt 0 -Is 18.255 -Id -1.255 -It undefined -Il 48 -If 0 -Ii 2 -Iv 32 -P olsr -Pn 1 -Ps 0 [-Pt HELLO -Po 18 -Ph 0 -Pms 0] 
s -t 0.014153736 -Hs 18 -Hd -1 -Ni 18 -Nx 472.00 -Ny 275.00 -Nz 0.00 -Ne -1.000000 -Nl MAC -Nw --- -Ma 0 -Md ffffffff -Ms 12 -Mt 800 -Is 18.255 -Id -1.255 -It undefined -Il 106 -If 0 -Ii 2 -Iv 32 -P olsr -Pn 1 -Ps 0 [-Pt HELLO -Po 18 -Ph 0 -Pms 0] 
r -t 0.015001903 -Hs 13 -Hd -1 -Ni 13 -Nx 472.00 -Ny 325.00 -Nz 0.00 -Ne -1.000000 -Nl MAC -Nw --- -Ma 0 -Md ffffffff -Ms 12 -Mt 800 -Is 18.255 -Id -1.255 -It undefined -Il 48 -If 0 -Ii 2 -Iv 32 -P olsr -Pn 1 -Ps 0 [-Pt HELLO -Po 18 -Ph 0 -Pms 0] 
r -t 0.015001903 -Hs 17 -Hd -1 -Ni 17 -Nx 422.00 -Ny 275.00 -Nz 0.00 -Ne -1.000000 -Nl MAC -Nw --- -Ma 0 -Md ffffffff -Ms 12 -Mt 800 -Is 18.255 -Id -1.255 -It undefined -Il 48 -If 0 -Ii 2 -Iv 32 -P olsr -Pn 1 -Ps 0 [-Pt HELLO -Po 18 -Ph 0 -Pms 0] 
r -t 0.015001903 -Hs 19 -Hd -1 -Ni 19 -Nx 522.00 -Ny 275.00 -Nz 0.00 -Ne -1.000000 -Nl MAC -Nw --- -Ma 0 -Md ffffffff -Ms 12 -Mt 800 -Is 18.255 -Id -1.255 -It undefined -Il 48 -If 0 -Ii 2 -Iv 32 -P olsr -Pn 1 -Ps 0 [-Pt HELLO -Po 18 -Ph 0 -Pms 0] 
r -t 0.015001972 -Hs 12 -Hd -1 -Ni 12 -Nx 422.00 -Ny 325.00 -Nz 0.00 -Ne -1.000000 -Nl MAC -Nw --- -Ma 0 -Md ffffffff -Ms 12 -Mt 800 -Is 18.255 -Id -1.255 -It undefined -Il 48 -If 0 -Ii 2 -Iv 32 -P olsr -Pn 1 -Ps 0 [-Pt HELLO -Po 18 -Ph 0 -Pms 0] 
r -t 0.015001972 -Hs 14 -Hd -1 -Ni 14 -Nx 522.00 -Ny 325.00 -Nz 0.00 -Ne -1.000000 -Nl MAC -Nw --- -Ma 0 -Md ffffffff -Ms 12 -Mt 800 -Is 18.255 -Id -1.255 -It undefined -Il 48 -If 0 -Ii 2 -Iv 32 -P olsr -Pn 1 -Ps 0 [-Pt HELLO -Po 18 -Ph 0 -Pms 0] 
r -t 0.015002070 -Hs 8 -Hd -1 -Ni 8 -Nx 472.00 -Ny 375.00 -Nz 0.00 -Ne -1.000000 -Nl MAC -Nw --- -Ma 0 -Md ffffffff -Ms 12 -Mt 800 -Is 18.255 -Id -1.255 -It undefined -Il 48 -If 0 -Ii 2 -Iv 32 -P olsr -Pn 1 -Ps 0 [-Pt HELLO -Po 18 -Ph 0 -Pms 0] 
r -t 0.015002070 -Hs 16 -Hd -1 -Ni 16 -Nx 372.00 -Ny 275.00 -Nz 0.00 -Ne -1.000000 -Nl MAC -Nw --- -Ma 0 -Md ffffffff -Ms 12 -Mt 800 -Is 18.255 -Id -1.255 -It undefined -Il 48 -If 0 -Ii 2 -Iv 32 -P olsr -Pn 1 -Ps 0 [-Pt HELLO -Po 18 -Ph 0 -Pms 0] 
r -t 0.015002109 -Hs 7 -Hd -1 -Ni 7 -Nx 422.00 -Ny 375.00 -Nz 0.00 -Ne -1.000000 -Nl MAC -Nw --- -Ma 0 -Md ffffffff -Ms 12 -Mt 800 -Is 18.255 -Id -1.255 -It undefined -Il 48 -If 0 -Ii 2 -Iv 32 -P olsr -Pn 1 -Ps 0 [-Pt HELLO -Po 18 -Ph 0 -Pms 0] 
r -t 0.015002109 -Hs 11 -Hd -1 -Ni 11 -Nx 372.00 -Ny 325.00 -Nz 0.00 -Ne -1.000000 -Nl MAC -Nw --- -Ma 0 -Md ffffffff -Ms 12 -Mt 800 -Is 18.255 -Id -1.255 -It undefined -Il 48 -If 0 -Ii 2 -Iv 32 -P olsr -Pn 1 -Ps 0 [-Pt HELLO -Po 18 -Ph 0 -Pms 0] 
r -t 0.015002109 -Hs 9 -Hd -1 -Ni 9 -Nx 522.00 -Ny 375.00 -Nz 0.00 -Ne -1.000000 -Nl MAC -Nw --- -Ma 0 -Md ffffffff -Ms 12 -Mt 800 -Is 18.255 -Id -1.255 -It undefined -Il 48 -If 0 -Ii 2 -Iv 32 -P olsr -Pn 1 -Ps 0 [-Pt HELLO -Po 18 -Ph 0 -Pms 0] 
r -t 0.015002208 -Hs 6 -Hd -1 -Ni 6 -Nx 372.00 -Ny 375.00 -Nz 0.00 -Ne -1.000000 -Nl MAC -Nw --- -Ma 0 -Md ffffffff -Ms 12 -Mt 800 -Is 18.255 -Id -1.255 -It undefined -Il 48 -If 0 -Ii 2 -Iv 32 -P olsr -Pn 1 -Ps 0 [-Pt HELLO -Po 18 -Ph 0 -Pms 0] 
r -t 0.015002236 -Hs 3 -Hd -1 -Ni 3 -Nx 472.00 -Ny 425.00 -Nz 0.00 -Ne -1.000000 -Nl MAC -Nw --- -Ma 0 -Md ffffffff -Ms 12 -Mt 800 -Is 18.255 -Id -1.255 -It undefined -Il 48 -If 0 -Ii 2 -Iv 32 -P olsr -Pn 1 -Ps 0 [-Pt HELLO -Po 18 -Ph 0 -Pms 0] 
r -t 0.015002236 -Hs 15 -Hd -1 -Ni 15 -Nx 322.00 -Ny 275.00 -Nz 0.00 -Ne -1.000000 -Nl MAC -Nw --- -Ma 0 -Md ffffffff -Ms 12 -Mt 800 -Is 18.255 -Id -1.255 -It undefined -Il 48 -If 0 -Ii 2 -Iv 32 -P olsr -Pn 1 -Ps 0 [-Pt HELLO -Po 18 -Ph 0 -Pms 0] 
r -t 0.015002263 -Hs 2 -Hd -1 -Ni 2 -Nx 422.00 -Ny 425.00 -Nz 0.00 -Ne -1.000000 -Nl MAC -Nw --- -Ma 0 -Md ffffffff -Ms 12 -Mt 800 -Is 18.255 -Id -1.255 -It undefined -Il 48 -If 0 -Ii 2 -Iv 32 -P olsr -Pn 1 -Ps 0 [-Pt HELLO -Po 18 -Ph 0 -Pms 0] 
r -t 0.015002263 -Hs 10 -Hd -1 -Ni 10 -Nx 322.00 -Ny 325.00 -Nz 0.00 -Ne -1.000000 -Nl MAC -Nw --- -Ma 0 -Md ffffffff -Ms 12 -Mt 800 -Is 18.255 -Id -1.255 -It undefined -Il 48 -If 0 -Ii 2 -Iv 32 -P olsr -Pn 1 -Ps 0 [-Pt HELLO -Po 18 -Ph 0 -Pms 0] 
r -t 0.015002263 -Hs 4 -Hd -1 -Ni 4 -Nx 522.00 -Ny 425.00 -Nz 0.00 -Ne -1.000000 -Nl MAC -Nw --- -Ma 0 -Md ffffffff -Ms 12 -Mt 800 -Is 18.255 -Id -1.255 -It undefined -Il 48 -If 0 -Ii 2 -Iv 32 -P olsr -Pn 1 -Ps 0 [-Pt HELLO -Po 18 -Ph 0 -Pms 0] 
r -t 0.015002337 -Hs 1 -Hd -1 -Ni 1 -Nx 372.00 -Ny 425.00 -Nz 0.00 -Ne -1.000000 -Nl MAC -Nw --- -Ma 0 -Md ffffffff -Ms 12 -Mt 800 -Is 18.255 -Id -1.255 -It undefined -Il 48 -If 0 -Ii 2 -Iv 32 -P olsr -Pn 1 -Ps 0 [-Pt HELLO -Po 18 -Ph 0 -Pms 0] 
r -t 0.015002337 -Hs 5 -Hd -1 -Ni 5 -Nx 322.00 -Ny 375.00 -Nz 0.00 -Ne -1.000000 -Nl MAC -Nw --- -Ma 0 -Md ffffffff -Ms 12 -Mt 800 -Is 18.255 -Id -1.255 -It undefined -Il 48 -If 0 -Ii 2 -Iv 32 -P olsr -Pn 1 -Ps 0 [-Pt HELLO -Po 18 -Ph 0 -Pms 0] 
r -t 0.015002443 -Hs 0 -Hd -1 -Ni 0 -Nx 322.00 -Ny 425.00 -Nz 0.00 -Ne -1.000000 -Nl MAC -Nw --- -Ma 0 -Md ffffffff -Ms 12 -Mt 800 -Is 18.255 -Id -1.255 -It undefined -Il 48 -If 0 -Ii 2 -Iv 32 -P olsr -Pn 1 -Ps 0 [-Pt HELLO -Po 18 -Ph 0 -Pms 0] 
r -t 0.015026903 -Hs 13 -Hd -1 -Ni 13 -Nx 472.00 -Ny 325.00 -Nz 0.00 -Ne -1.000000 -Nl RTR -Nw --- -Ma 0 -Md ffffffff -Ms 12 -Mt 800 -Is 18.255 -Id -1.255 -It undefined -Il 48 -If 0 -Ii 2 -Iv 32 -P olsr -Pn 1 -Ps 0 [-Pt HELLO -Po 18 -Ph 0 -Pms 0] 
r -t 0.015026903 -Hs 17 -Hd -1 -Ni 17 -Nx 422.00 -Ny 275.00 -Nz 0.00 -Ne -1.000000 -Nl RTR -Nw --- -Ma 0 -Md ffffffff -Ms 12 -Mt 800 -Is 18.255 -Id -1.255 -It undefined -Il 48 -If 0 -Ii 2 -Iv 32 -P olsr -Pn 1 -Ps 0 [-Pt HELLO -Po 18 -Ph 0 -Pms 0] 
r -t 0.015026903 -Hs 19 -Hd -1 -Ni 19 -Nx 522.00 -Ny 275.00 -Nz 0.00 -Ne -1.000000 -Nl RTR -Nw --- -Ma 0 -Md ffffffff -Ms 12 -Mt 800 -Is 18.255 -Id -1.255 -It undefined -Il 48 -If 0 -Ii 2 -Iv 32 -P olsr -Pn 1 -Ps 0 [-Pt HELLO -Po 18 -Ph 0 -Pms 0] 
r -t 0.015026972 -Hs 12 -Hd -1 -Ni 12 -Nx 422.00 -Ny 325.00 -Nz 0.00 -Ne -1.000000 -Nl RTR -Nw --- -Ma 0 -Md ffffffff -Ms 12 -Mt 800 -Is 18.255 -Id -1.255 -It undefined -Il 48 -If 0 -Ii 2 -Iv 32 -P olsr -Pn 1 -Ps 0 [-Pt HELLO -Po 18 -Ph 0 -Pms 0] 
r -t 0.015026972 -Hs 14 -Hd -1 -Ni 14 -Nx 522.00 -Ny 325.00 -Nz 0.00 -Ne -1.000000 -Nl RTR -Nw --- -Ma 0 -Md ffffffff -Ms 12 -Mt 800 -Is 18.255 -Id -1.255 -It undefined -Il 48 -If 0 -Ii 2 -Iv 32 -P olsr -Pn 1 -Ps 0 [-Pt HELLO -Po 18 -Ph 0 -Pms 0] 
r -t 0.015027070 -Hs 8 -Hd -1 -Ni 8 -Nx 472.00 -Ny 375.00 -Nz 0.00 -Ne -1.000000 -Nl RTR -Nw --- -Ma 0 -Md ffffffff -Ms 12 -Mt 800 -Is 18.255 -Id -1.255 -It undefined -Il 48 -If 0 -Ii 2 -Iv 32 -P olsr -Pn 1 -Ps 0 [-Pt HELLO -Po 18 -Ph 0 -Pms 0] 
r -t 0.015027070 -Hs 16 -Hd -1 -Ni 16 -Nx 372.00 -Ny 275.00 -Nz 0.00 -Ne -1.000000 -Nl RTR -Nw --- -Ma 0 -Md ffffffff -Ms 12 -Mt 800 -Is 18.255 -Id -1.255 -It undefined -Il 48 -If 0 -Ii 2 -Iv 32 -P olsr -Pn 1 -Ps 0 [-Pt HELLO -Po 18 -Ph 0 -Pms 0] 
r -t 0.015027109 -Hs 7 -Hd -1 -Ni 7 -Nx 422.00 -Ny 375.00 -Nz 0.00 -Ne -1.000000 -Nl RTR -Nw --- -Ma 0 -Md ffffffff -Ms 12 -Mt 800 -Is 18.255 -Id -1.255 -It undefined -Il 48 -If 0 -Ii 2 -Iv 32 -P olsr -Pn 1 -Ps 0 [-Pt HELLO -Po 18 -Ph 0 -Pms 0] 
r -t 0.015027109 -Hs 11 -Hd -1 -Ni 11 -Nx 372.00 -Ny 325.00 -Nz 0.00 -Ne -1.000000 -Nl RTR -Nw --- -Ma 0 -Md ffffffff -Ms 12 -Mt 800 -Is 18.255 -Id -1.255 -It undefined -Il 48 -If 0 -Ii 2 -Iv 32 -P olsr -Pn 1 -Ps 0 [-Pt HELLO -Po 18 -Ph 0 -Pms 0] 
r -t 0.015027109 -Hs 9 -Hd -1 -Ni 9 -Nx 522.00 -Ny 375.00 -Nz 0.00 -Ne -1.000000 -Nl RTR -Nw --- -Ma 0 -Md ffffffff -Ms 12 -Mt 800 -Is 18.255 -Id -1.255 -It undefined -Il 48 -If 0 -Ii 2 -Iv 32 -P olsr -Pn 1 -Ps 0 [-Pt HELLO -Po 18 -Ph 0 -Pms 0] 
r -t 0.015027208 -Hs 6 -Hd -1 -Ni 6 -Nx 372.00 -Ny 375.00 -Nz 0.00 -Ne -1.000000 -Nl RTR -Nw --- -Ma 0 -Md ffffffff -Ms 12 -Mt 800 -Is 18.255 -Id -1.255 -It undefined -Il 48 -If 0 -Ii 2 -Iv 32 -P olsr -Pn 1 -Ps 0 [-Pt HELLO -Po 18 -Ph 0 -Pms 0] 
r -t 0.015027236 -Hs 3 -Hd -1 -Ni 3 -Nx 472.00 -Ny 425.00 -Nz 0.00 -Ne -1.000000 -Nl RTR -Nw --- -Ma 0 -Md ffffffff -Ms 12 -Mt 800 -Is 18.255 -Id -1.255 -It undefined -Il 48 -If 0 -Ii 2 -Iv 32 -P olsr -Pn 1 -Ps 0 [-Pt HELLO -Po 18 -Ph 0 -Pms 0] 
r -t 0.015027236 -Hs 15 -Hd -1 -Ni 15 -Nx 322.00 -Ny 275.00 -Nz 0.00 -Ne -1.000000 -Nl RTR -Nw --- -Ma 0 -Md ffffffff -Ms 12 -Mt 800 -Is 18.255 -Id -1.255 -It undefined -Il 48 -If 0 -Ii 2 -Iv 32 -P olsr -Pn 1 -Ps 0 [-Pt HELLO -Po 18 -Ph 0 -Pms 0] 
r -t 0.015027263 -Hs 2 -Hd -1 -Ni 2 -Nx 422.00 -Ny 425.00 -Nz 0.00 -Ne -1.000000 -Nl RTR -Nw --- -Ma 0 -Md ffffffff -Ms 12 -Mt 800 -Is 18.255 -Id -1.255 -It undefined -Il 48 -If 0 -Ii 2 -Iv 32 -P olsr -Pn 1 -Ps 0 [-Pt HELLO -Po 18 -Ph 0 -Pms 0] 
r -t 0.015027263 -Hs 10 -Hd -1 -Ni 10 -Nx 322.00 -Ny 325.00 -Nz 0.00 -Ne -1.000000 -Nl RTR -Nw --- -Ma 0 -Md ffffffff -Ms 12 -Mt 800 -Is 18.255 -Id -1.255 -It undefined -Il 48 -If 0 -Ii 2 -Iv 32 -P olsr -Pn 1 -Ps 0 [-Pt HELLO -Po 18 -Ph 0 -Pms 0] 
r -t 0.015027263 -Hs 4 -Hd -1 -Ni 4 -Nx 522.00 -Ny 425.00 -Nz 0.00 -Ne -1.000000 -Nl RTR -Nw --- -Ma 0 -Md ffffffff -Ms 12 -Mt 800 -Is 18.255 -Id -1.255 -It undefined -Il 48 -If 0 -Ii 2 -Iv 32 -P olsr -Pn 1 -Ps 0 [-Pt HELLO -Po 18 -Ph 0 -Pms 0] 
r -t 0.015027337 -Hs 1 -Hd -1 -Ni 1 -Nx 372.00 -Ny 425.00 -Nz 0.00 -Ne -1.000000 -Nl RTR -Nw --- -Ma 0 -Md ffffffff -Ms 12 -Mt 800 -Is 18.255 -Id -1.255 -It undefined -Il 48 -If 0 -Ii 2 -Iv 32 -P olsr -Pn 1 -Ps 0 [-Pt HELLO -Po 18 -Ph 0 -Pms 0] 
r -t 0.015027337 -Hs 5 -Hd -1 -Ni 5 -Nx 322.00 -Ny 375.00 -Nz 0.00 -Ne -1.000000 -Nl RTR -Nw --- -Ma 0 -Md ffffffff -Ms 12 -Mt 800 -Is 18.255 -Id -1.255 -It undefined -Il 48 -If 0 -Ii 2 -Iv 32 -P olsr -Pn 1 -Ps 0 [-Pt HELLO -Po 18 -Ph 0 -Pms 0] 
r -t 0.015027443 -Hs 0 -Hd -1 -Ni 0 -Nx 322.00 -Ny 425.00 -Nz 0.00 -Ne -1.000000 -Nl RTR -Nw --- -Ma 0 -Md ffffffff -Ms 12 -Mt 800 -Is 18.255 -Id -1.255 -It undefined -Il 48 -If 0 -Ii 2 -Iv 32 -P olsr -Pn 1 -Ps 0 [-Pt HELLO -Po 18 -Ph 0 -Pms 0] 
s -t 0.061551748 -Hs 15 -Hd -1 -Ni 15 -Nx 322.00 -Ny 275.00 -Nz 0.00 -Ne -1.000000 -Nl RTR -Nw --- -Ma 0 -Md 0 -Ms 0 -Mt 0 -Is 15.255 -Id -1.255 -It undefined -Il 48 -If 0 -Ii 3 -Iv 32 -P olsr -Pn 1 -Ps 0 [-Pt HELLO -Po 15 -Ph 0 -Pms 0] 
s -t 0.062086748 -Hs 15 -Hd -1 -Ni 15 -Nx 322.00 -Ny 275.00 -Nz 0.00 -Ne -1.000000 -Nl MAC -Nw --- -Ma 0 -Md ffffffff -Ms f -Mt 800 -Is 15.255 -Id -1.255 -It undefined -Il 106 -If 0 -Ii 3 -Iv 32 -P olsr -Pn 1 -Ps 0 [-Pt HELLO -Po 15 -Ph 0 -Pms 0] 