n -t * -s 0  -x 289 -y 394 -Z 0 -z 20  -v circle -c black
n -t * -s 1  -x 339 -y 394 -Z 0 -z 20  -v circle -c black
n -t * -s 2  -x 389 -y 394 -Z 0 -z 20  -v circle -c black
n -t * -s 3  -x 439 -y 394 -Z 0 -z 20  -v circle -c black
n -t * -s 4  -x 489 -y 394 -Z 0 -z 20  -v circle -c black
n -t * -s 5  -x 289 -y 344 -Z 0 -z 20  -v circle -c black
n -t * -s 6  -x 339 -y 344 -Z 0 -z 20  -v circle -c black
n -t * -s 7  -x 389 -y 344 -Z 0 -z 20  -v circle -c black
n -t * -s 8  -x 439 -y 344 -Z 0 -z 20  -v circle -c black
n -t * -s 9  -x 489 -y 344 -Z 0 -z 20  -v circle -c black
V -t * -v 1.0a5 -a 0
W -t * -x 589 -y 494
A -t * -n 1 -p 0 -o 0x7fffffff -c 30 -a 1
A -t * -h 1 -m 1073741823 -s 0
+ -t 0.007102330 -s 0 -d -1 -p undefined -e 48 -c 2 -a 0 -i 0 -k RTR 
- -t 0.007102330 -s 0 -d -1 -p undefined -e 48 -c 2 -a 0 -i 0 -k RTR
h -t 0.007102330 -s 0 -d -1 -p undefined -e 48 -c 2 -a 0 -i 0 -k RTR
+ -t 0.007477330 -s 0 -d -1 -p undefined -e 106 -c 2 -a 0 -i 0 -k MAC 
- -t 0.007477330 -s 0 -d -1 -p undefined -e 106 -c 2 -a 0 -i 0 -k MAC
h -t 0.007477330 -s 0 -d -1 -p undefined -e 106 -c 2 -a 0 -i 0 -k MAC
r -t 0.008325497 -s 5 -d -1 -p undefined -e 48 -c 2 -a 0 -i 0 -k MAC
r -t 0.008325497 -s 1 -d -1 -p undefined -e 48 -c 2 -a 0 -i 0 -k MAC
r -t 0.008325566 -s 6 -d -1 -p undefined -e 48 -c 2 -a 0 -i 0 -k MAC
r -t 0.008325664 -s 2 -d -1 -p undefined -e 48 -c 2 -a 0 -i 0 -k MAC
r -t 0.008325703 -s 7 -d -1 -p undefined -e 48 -c 2 -a 0 -i 0 -k MAC
r -t 0.008325830 -s 3 -d -1 -p undefined -e 48 -c 2 -a 0 -i 0 -k MAC
r -t 0.008325857 -s 8 -d -1 -p undefined -e 48 -c 2 -a 0 -i 0 -k MAC
r -t 0.008325997 -s 4 -d -1 -p undefined -e 48 -c 2 -a 0 -i 0 -k MAC
r -t 0.008326018 -s 9 -d -1 -p undefined -e 48 -c 2 -a 0 -i 0 -k MAC
r -t 0.008350497 -s 5 -d -1 -p undefined -e 48 -c 2 -a 0 -i 0 -k RTR
r -t 0.008350497 -s 1 -d -1 -p undefined -e 48 -c 2 -a 0 -i 0 -k RTR
r -t 0.008350566 -s 6 -d -1 -p undefined -e 48 -c 2 -a 0 -i 0 -k RTR
r -t 0.008350664 -s 2 -d -1 -p undefined -e 48 -c 2 -a 0 -i 0 -k RTR
r -t 0.008350703 -s 7 -d -1 -p undefined -e 48 -c 2 -a 0 -i 0 -k RTR
r -t 0.008350830 -s 3 -d -1 -p undefined -e 48 -c 2 -a 0 -i 0 -k RTR
r -t 0.008350857 -s 8 -d -1 -p undefined -e 48 -c 2 -a 0 -i 0 -k RTR
r -t 0.008350997 -s 4 -d -1 -p undefined -e 48 -c 2 -a 0 -i 0 -k RTR
r -t 0.008351018 -s 9 -d -1 -p undefined -e 48 -c 2 -a 0 -i 0 -k RTR
+ -t 0.108579730 -s 9 -d -1 -p undefined -e 48 -c 2 -a 0 -i 1 -k RTR 
- -t 0.108579730 -s 9 -d -1 -p undefined -e 48 -c 2 -a 0 -i 1 -k RTR
h -t 0.108579730 -s 9 -d -1 -p undefined -e 48 -c 2 -a 0 -i 1 -k RTR
+ -t 0.108794730 -s 9 -d -1 -p undefined -e 106 -c 2 -a 0 -i 1 -k MAC 
- -t 0.108794730 -s 9 -d -1 -p undefined -e 106 -c 2 -a 0 -i 1 -k MAC
h -t 0.108794730 -s 9 -d -1 -p undefined -e 106 -c 2 -a 0 -i 1 -k MAC
r -t 0.109642896 -s 4 -d -1 -p undefined -e 48 -c 2 -a 0 -i 1 -k MAC
r -t 0.109642896 -s 8 -d -1 -p undefined -e 48 -c 2 -a 0 -i 1 -k MAC
r -t 0.109642965 -s 3 -d -1 -p undefined -e 48 -c 2 -a 0 -i 1 -k MAC
r -t 0.109643063 -s 7 -d -1 -p undefined -e 48 -c 2 -a 0 -i 1 -k MAC
r -t 0.109643102 -s 2 -d -1 -p undefined -e 48 -c 2 -a 0 -i 1 -k MAC
r -t 0.109643230 -s 6 -d -1 -p undefined -e 48 -c 2 -a 0 -i 1 -k MAC
r -t 0.109643257 -s 1 -d -1 -p undefined -e 48 -c 2 -a 0 -i 1 -k MAC
r -t 0.109643396 -s 5 -d -1 -p undefined -e 48 -c 2 -a 0 -i 1 -k MAC
r -t 0.109643417 -s 0 -d -1 -p undefined -e 48 -c 2 -a 0 -i 1 -k MAC
r -t 0.109667896 -s 4 -d -1 -p undefined -e 48 -c 2 -a 0 -i 1 -k RTR
r -t 0.109667896 -s 8 -d -1 -p undefined -e 48 -c 2 -a 0 -i 1 -k RTR
r -t 0.109667965 -s 3 -d -1 -p undefined -e 48 -c 2 -a 0 -i 1 -k RTR
r -t 0.109668063 -s 7 -d -1 -p undefined -e 48 -c 2 -a 0 -i 1 -k RTR
r -t 0.109668102 -s 2 -d -1 -p undefined -e 48 -c 2 -a 0 -i 1 -k RTR
r -t 0.109668230 -s 6 -d -1 -p undefined -e 48 -c 2 -a 0 -i 1 -k RTR
r -t 0.109668257 -s 1 -d -1 -p undefined -e 48 -c 2 -a 0 -i 1 -k RTR
r -t 0.109668396 -s 5 -d -1 -p undefined -e 48 -c 2 -a 0 -i 1 -k RTR
r -t 0.109668417 -s 0 -d -1 -p undefined -e 48 -c 2 -a 0 -i 1 -k RTR
+ -t 0.117300876 -s 2 -d -1 -p undefined -e 48 -c 2 -a 0 -i 2 -k RTR 
- -t 0.117300876 -s 2 -d -1 -p undefined -e 48 -c 2 -a 0 -i 2 -k RTR
h -t 0.117300876 -s 2 -d -1 -p undefined -e 48 -c 2 -a 0 -i 2 -k RTR
+ -t 0.117655876 -s 2 -d -1 -p undefined -e 106 -c 2 -a 0 -i 2 -k MAC 
- -t 0.117655876 -s 2 -d -1 -p undefined -e 106 -c 2 -a 0 -i 2 -k MAC
h -t 0.117655876 -s 2 -d -1 -p undefined -e 106 -c 2 -a 0 -i 2 -k MAC
r -t 0.118504043 -s 1 -d -1 -p undefined -e 48 -c 2 -a 0 -i 2 -k MAC
r -t 0.118504043 -s 7 -d -1 -p undefined -e 48 -c 2 -a 0 -i 2 -k MAC
r -t 0.118504043 -s 3 -d -1 -p undefined -e 48 -c 2 -a 0 -i 2 -k MAC
r -t 0.118504112 -s 6 -d -1 -p undefined -e 48 -c 2 -a 0 -i 2 -k MAC
r -t 0.118504112 -s 8 -d -1 -p undefined -e 48 -c 2 -a 0 -i 2 -k MAC
r -t 0.118504209 -s 0 -d -1 -p undefined -e 48 -c 2 -a 0 -i 2 -k MAC
r -t 0.118504209 -s 4 -d -1 -p undefined -e 48 -c 2 -a 0 -i 2 -k MAC
r -t 0.118504249 -s 5 -d -1 -p undefined -e 48 -c 2 -a 0 -i 2 -k MAC
r -t 0.118504249 -s 9 -d -1 -p undefined -e 48 -c 2 -a 0 -i 2 -k MAC
r -t 0.118529043 -s 1 -d -1 -p undefined -e 48 -c 2 -a 0 -i 2 -k RTR
r -t 0.118529043 -s 7 -d -1 -p undefined -e 48 -c 2 -a 0 -i 2 -k RTR
r -t 0.118529043 -s 3 -d -1 -p undefined -e 48 -c 2 -a 0 -i 2 -k RTR
r -t 0.118529112 -s 6 -d -1 -p undefined -e 48 -c 2 -a 0 -i 2 -k RTR
r -t 0.118529112 -s 8 -d -1 -p undefined -e 48 -c 2 -a 0 -i 2 -k RTR
r -t 0.118529209 -s 0 -d -1 -p undefined -e 48 -c 2 -a 0 -i 2 -k RTR
r -t 0.118529209 -s 4 -d -1 -p undefined -e 48 -c 2 -a 0 -i 2 -k RTR
r -t 0.118529249 -s 5 -d -1 -p undefined -e 48 -c 2 -a 0 -i 2 -k RTR
r -t 0.118529249 -s 9 -d -1 -p undefined -e 48 -c 2 -a 0 -i 2 -k RTR
+ -t 0.204342838 -s 7 -d -1 -p undefined -e 48 -c 2 -a 0 -i 3 -k RTR 
- -t 0.204342838 -s 7 -d -1 -p undefined -e 48 -c 2 -a 0 -i 3 -k RTR
h -t 0.204342838 -s 7 -d -1 -p undefined -e 48 -c 2 -a 0 -i 3 -k RTR
+ -t 0.204517838 -s 7 -d -1 -p undefined -e 106 -c 2 -a 0 -i 3 -k MAC 
- -t 0.204517838 -s 7 -d -1 -p undefined -e 106 -c 2 -a 0 -i 3 -k MAC
h -t 0.204517838 -s 7 -d -1 -p undefined -e 106 -c 2 -a 0 -i 3 -k MAC
r -t 0.205366005 -s 2 -d -1 -p undefined -e 48 -c 2 -a 0 -i 3 -k MAC
r -t 0.205366005 -s 6 -d -1 -p undefined -e 48 -c 2 -a 0 -i 3 -k MAC
r -t 0.205366005 -s 8 -d -1 -p undefined -e 48 -c 2 -a 0 -i 3 -k MAC
r -t 0.205366074 -s 1 -d -1 -p undefined -e 48 -c 2 -a 0 -i 3 -k MAC
r -t 0.205366074 -s 3 -d -1 -p undefined -e 48 -c 2 -a 0 -i 3 -k MAC
r -t 0.205366171 -s 5 -d -1 -p undefined -e 48 -c 2 -a 0 -i 3 -k MAC
r -t 0.205366171 -s 9 -d -1 -p undefined -e 48 -c 2 -a 0 -i 3 -k MAC
r -t 0.205366211 -s 0 -d -1 -p undefined -e 48 -c 2 -a 0 -i 3 -k MAC
r -t 0.205366211 -s 4 -d -1 -p undefined -e 48 -c 2 -a 0 -i 3 -k MAC
r -t 0.205391005 -s 2 -d -1 -p undefined -e 48 -c 2 -a 0 -i 3 -k RTR
r -t 0.205391005 -s 6 -d -1 -p undefined -e 48 -c 2 -a 0 -i 3 -k RTR
r -t 0.205391005 -s 8 -d -1 -p undefined -e 48 -c 2 -a 0 -i 3 -k RTR
r -t 0.205391074 -s 1 -d -1 -p undefined -e 48 -c 2 -a 0 -i 3 -k RTR
r -t 0.205391074 -s 3 -d -1 -p undefined -e 48 -c 2 -a 0 -i 3 -k RTR
r -t 0.205391171 -s 5 -d -1 -p undefined -e 48 -c 2 -a 0 -i 3 -k RTR
r -t 0.205391171 -s 9 -d -1 -p undefined -e 48 -c 2 -a 0 -i 3 -k RTR
r -t 0.205391211 -s 0 -d -1 -p undefined -e 48 -c 2 -a 0 -i 3 -k RTR
r -t 0.205391211 -s 4 -d -1 -p undefined -e 48 -c 2 -a 0 -i 3 -k RTR
+ -t 0.211828368 -s 5 -d -1 -p undefined -e 48 -c 2 -a 0 -i 4 -k RTR 
- -t 0.211828368 -s 5 -d -1 -p undefined -e 48 -c 2 -a 0 -i 4 -k RTR
h -t 0.211828368 -s 5 -d -1 -p undefined -e 48 -c 2 -a 0 -i 4 -k RTR
+ -t 0.212123368 -s 5 -d -1 -p undefined -e 106 -c 2 -a 0 -i 4 -k MAC 
- -t 0.212123368 -s 5 -d -1 -p undefined -e 106 -c 2 -a 0 -i 4 -k MAC
h -t 0.212123368 -s 5 -d -1 -p undefined -e 106 -c 2 -a 0 -i 4 -k MAC
r -t 0.212971535 -s 0 -d -1 -p undefined -e 48 -c 2 -a 0 -i 4 -k MAC
r -t 0.212971535 -s 6 -d -1 -p undefined -e 48 -c 2 -a 0 -i 4 -k MAC
r -t 0.212971604 -s 1 -d -1 -p undefined -e 48 -c 2 -a 0 -i 4 -k MAC
r -t 0.212971701 -s 7 -d -1 -p undefined -e 48 -c 2 -a 0 -i 4 -k MAC
r -t 0.212971741 -s 2 -d -1 -p undefined -e 48 -c 2 -a 0 -i 4 -k MAC
r -t 0.212971868 -s 8 -d -1 -p undefined -e 48 -c 2 -a 0 -i 4 -k MAC
r -t 0.212971895 -s 3 -d -1 -p undefined -e 48 -c 2 -a 0 -i 4 -k MAC
r -t 0.212972035 -s 9 -d -1 -p undefined -e 48 -c 2 -a 0 -i 4 -k MAC
r -t 0.212972055 -s 4 -d -1 -p undefined -e 48 -c 2 -a 0 -i 4 -k MAC
r -t 0.212996535 -s 0 -d -1 -p undefined -e 48 -c 2 -a 0 -i 4 -k RTR
r -t 0.212996535 -s 6 -d -1 -p undefined -e 48 -c 2 -a 0 -i 4 -k RTR
r -t 0.212996604 -s 1 -d -1 -p undefined -e 48 -c 2 -a 0 -i 4 -k RTR
r -t 0.212996701 -s 7 -d -1 -p undefined -e 48 -c 2 -a 0 -i 4 -k RTR
r -t 0.212996741 -s 2 -d -1 -p undefined -e 48 -c 2 -a 0 -i 4 -k RTR
r -t 0.212996868 -s 8 -d -1 -p undefined -e 48 -c 2 -a 0 -i 4 -k RTR
r -t 0.212996895 -s 3 -d -1 -p undefined -e 48 -c 2 -a 0 -i 4 -k RTR
r -t 0.212997035 -s 9 -d -1 -p undefined -e 48 -c 2 -a 0 -i 4 -k RTR
r -t 0.212997055 -s 4 -d -1 -p undefined -e 48 -c 2 -a 0 -i 4 -k RTR
+ -t 0.320033830 -s 4 -d -1 -p undefined -e 48 -c 2 -a 0 -i 5 -k RTR 
- -t 0.320033830 -s 4 -d -1 -p undefined -e 48 -c 2 -a 0 -i 5 -k RTR
h -t 0.320033830 -s 4 -d -1 -p undefined -e 48 -c 2 -a 0 -i 5 -k RTR
+ -t 0.320688830 -s 4 -d -1 -p undefined -e 106 -c 2 -a 0 -i 5 -k MAC 
- -t 0.320688830 -s 4 -d -1 -p undefined -e 106 -c 2 -a 0 -i 5 -k MAC
h -t 0.320688830 -s 4 -d -1 -p undefined -e 106 -c 2 -a 0 -i 5 -k MAC
r -t 0.321536996 -s 3 -d -1 -p undefined -e 48 -c 2 -a 0 -i 5 -k MAC
r -t 0.321536996 -s 9 -d -1 -p undefined -e 48 -c 2 -a 0 -i 5 -k MAC
r -t 0.321537065 -s 8 -d -1 -p undefined -e 48 -c 2 -a 0 -i 5 -k MAC
r -t 0.321537163 -s 2 -d -1 -p undefined -e 48 -c 2 -a 0 -i 5 -k MAC
r -t 0.321537202 -s 7 -d -1 -p undefined -e 48 -c 2 -a 0 -i 5 -k MAC
r -t 0.321537330 -s 1 -d -1 -p undefined -e 48 -c 2 -a 0 -i 5 -k MAC
r -t 0.321537357 -s 6 -d -1 -p undefined -e 48 -c 2 -a 0 -i 5 -k MAC
r -t 0.321537496 -s 0 -d -1 -p undefined -e 48 -c 2 -a 0 -i 5 -k MAC
r -t 0.321537517 -s 5 -d -1 -p undefined -e 48 -c 2 -a 0 -i 5 -k MAC
r -t 0.321561996 -s 3 -d -1 -p undefined -e 48 -c 2 -a 0 -i 5 -k RTR
r -t 0.321561996 -s 9 -d -1 -p undefined -e 48 -c 2 -a 0 -i 5 -k RTR
r -t 0.321562065 -s 8 -d -1 -p undefined -e 48 -c 2 -a 0 -i 5 -k RTR
r -t 0.321562163 -s 2 -d -1 -p undefined -e 48 -c 2 -a 0 -i 5 -k RTR
r -t 0.321562202 -s 7 -d -1 -p undefined -e 48 -c 2 -a 0 -i 5 -k RTR
r -t 0.321562330 -s 1 -d -1 -p undefined -e 48 -c 2 -a 0 -i 5 -k RTR
r -t 0.321562357 -s 6 -d -1 -p undefined -e 48 -c 2 -a 0 -i 5 -k RTR
r -t 0.321562496 -s 0 -d -1 -p undefined -e 48 -c 2 -a 0 -i 5 -k RTR
r -t 0.321562517 -s 5 -d -1 -p undefined -e 48 -c 2 -a 0 -i 5 -k RTR
+ -t 0.346153416 -s 8 -d -1 -p undefined -e 48 -c 2 -a 0 -i 6 -k RTR 
- -t 0.346153416 -s 8 -d -1 -p undefined -e 48 -c 2 -a 0 -i 6 -k RTR
h -t 0.346153416 -s 8 -d -1 -p undefined -e 48 -c 2 -a 0 -i 6 -k RTR
+ -t 0.346348416 -s 8 -d -1 -p undefined -e 106 -c 2 -a 0 -i 6 -k MAC 
- -t 0.346348416 -s 8 -d -1 -p undefined -e 106 -c 2 -a 0 -i 6 -k MAC
h -t 0.346348416 -s 8 -d -1 -p undefined -e 106 -c 2 -a 0 -i 6 -k MAC
r -t 0.347196583 -s 3 -d -1 -p undefined -e 48 -c 2 -a 0 -i 6 -k MAC
r -t 0.347196583 -s 7 -d -1 -p undefined -e 48 -c 2 -a 0 -i 6 -k MAC
r -t 0.347196583 -s 9 -d -1 -p undefined -e 48 -c 2 -a 0 -i 6 -k MAC
r -t 0.347196652 -s 2 -d -1 -p undefined -e 48 -c 2 -a 0 -i 6 -k MAC
r -t 0.347196652 -s 4 -d -1 -p undefined -e 48 -c 2 -a 0 -i 6 -k MAC
r -t 0.347196750 -s 6 -d -1 -p undefined -e 48 -c 2 -a 0 -i 6 -k MAC
r -t 0.347196789 -s 1 -d -1 -p undefined -e 48 -c 2 -a 0 -i 6 -k MAC
r -t 0.347196916 -s 5 -d -1 -p undefined -e 48 -c 2 -a 0 -i 6 -k MAC
r -t 0.347196943 -s 0 -d -1 -p undefined -e 48 -c 2 -a 0 -i 6 -k MAC
r -t 0.347221583 -s 3 -d -1 -p undefined -e 48 -c 2 -a 0 -i 6 -k RTR
r -t 0.347221583 -s 7 -d -1 -p undefined -e 48 -c 2 -a 0 -i 6 -k RTR
r -t 0.347221583 -s 9 -d -1 -p undefined -e 48 -c 2 -a 0 -i 6 -k RTR
r -t 0.347221652 -s 2 -d -1 -p undefined -e 48 -c 2 -a 0 -i 6 -k RTR
r -t 0.347221652 -s 4 -d -1 -p undefined -e 48 -c 2 -a 0 -i 6 -k RTR
r -t 0.347221750 -s 6 -d -1 -p undefined -e 48 -c 2 -a 0 -i 6 -k RTR
r -t 0.347221789 -s 1 -d -1 -p undefined -e 48 -c 2 -a 0 -i 6 -k RTR
r -t 0.347221916 -s 5 -d -1 -p undefined -e 48 -c 2 -a 0 -i 6 -k RTR
r -t 0.347221943 -s 0 -d -1 -p undefined -e 48 -c 2 -a 0 -i 6 -k RTR
+ -t 0.399577727 -s 1 -d -1 -p undefined -e 48 -c 2 -a 0 -i 7 -k RTR 
- -t 0.399577727 -s 1 -d -1 -p undefined -e 48 -c 2 -a 0 -i 7 -k RTR
h -t 0.399577727 -s 1 -d -1 -p undefined -e 48 -c 2 -a 0 -i 7 -k RTR
+ -t 0.400152727 -s 1 -d -1 -p undefined -e 106 -c 2 -a 0 -i 7 -k MAC 
- -t 0.400152727 -s 1 -d -1 -p undefined -e 106 -c 2 -a 0 -i 7 -k MAC
h -t 0.400152727 -s 1 -d -1 -p undefined -e 106 -c 2 -a 0 -i 7 -k MAC
r -t 0.401000893 -s 0 -d -1 -p undefined -e 48 -c 2 -a 0 -i 7 -k MAC
r -t 0.401000893 -s 6 -d -1 -p undefined -e 48 -c 2 -a 0 -i 7 -k MAC
r -t 0.401000893 -s 2 -d -1 -p undefined -e 48 -c 2 -a 0 -i 7 -k MAC
r -t 0.401000962 -s 5 -d -1 -p undefined -e 48 -c 2 -a 0 -i 7 -k MAC
r -t 0.401000962 -s 7 -d -1 -p undefined -e 48 -c 2 -a 0 -i 7 -k MAC
r -t 0.401001060 -s 3 -d -1 -p undefined -e 48 -c 2 -a 0 -i 7 -k MAC
r -t 0.401001099 -s 8 -d -1 -p undefined -e 48 -c 2 -a 0 -i 7 -k MAC
r -t 0.401001227 -s 4 -d -1 -p undefined -e 48 -c 2 -a 0 -i 7 -k MAC
r -t 0.401001254 -s 9 -d -1 -p undefined -e 48 -c 2 -a 0 -i 7 -k MAC
r -t 0.401025893 -s 0 -d -1 -p undefined -e 48 -c 2 -a 0 -i 7 -k RTR
r -t 0.401025893 -s 6 -d -1 -p undefined -e 48 -c 2 -a 0 -i 7 -k RTR
r -t 0.401025893 -s 2 -d -1 -p undefined -e 48 -c 2 -a 0 -i 7 -k RTR
r -t 0.401025962 -s 5 -d -1 -p undefined -e 48 -c 2 -a 0 -i 7 -k RTR
r -t 0.401025962 -s 7 -d -1 -p undefined -e 48 -c 2 -a 0 -i 7 -k RTR
r -t 0.401026060 -s 3 -d -1 -p undefined -e 48 -c 2 -a 0 -i 7 -k RTR
r -t 0.401026099 -s 8 -d -1 -p undefined -e 48 -c 2 -a 0 -i 7 -k RTR
r -t 0.401026227 -s 4 -d -1 -p undefined -e 48 -c 2 -a 0 -i 7 -k RTR
r -t 0.401026254 -s 9 -d -1 -p undefined -e 48 -c 2 -a 0 -i 7 -k RTR
+ -t 0.403514277 -s 6 -d -1 -p undefined -e 48 -c 2 -a 0 -i 8 -k RTR 
- -t 0.403514277 -s 6 -d -1 -p undefined -e 48 -c 2 -a 0 -i 8 -k RTR
h -t 0.403514277 -s 6 -d -1 -p undefined -e 48 -c 2 -a 0 -i 8 -k RTR
+ -t 0.403769277 -s 6 -d -1 -p undefined -e 106 -c 2 -a 0 -i 8 -k MAC 
- -t 0.403769277 -s 6 -d -1 -p undefined -e 106 -c 2 -a 0 -i 8 -k MAC
h -t 0.403769277 -s 6 -d -1 -p undefined -e 106 -c 2 -a 0 -i 8 -k MAC
r -t 0.404617443 -s 1 -d -1 -p undefined -e 48 -c 2 -a 0 -i 8 -k MAC
r -t 0.404617443 -s 5 -d -1 -p undefined -e 48 -c 2 -a 0 -i 8 -k MAC
r -t 0.404617443 -s 7 -d -1 -p undefined -e 48 -c 2 -a 0 -i 8 -k MAC
r -t 0.404617513 -s 0 -d -1 -p undefined -e 48 -c 2 -a 0 -i 8 -k MAC
r -t 0.404617513 -s 2 -d -1 -p undefined -e 48 -c 2 -a 0 -i 8 -k MAC
r -t 0.404617610 -s 8 -d -1 -p undefined -e 48 -c 2 -a 0 -i 8 -k MAC
r -t 0.404617650 -s 3 -d -1 -p undefined -e 48 -c 2 -a 0 -i 8 -k MAC
r -t 0.404617777 -s 9 -d -1 -p undefined -e 48 -c 2 -a 0 -i 8 -k MAC
r -t 0.404617804 -s 4 -d -1 -p undefined -e 48 -c 2 -a 0 -i 8 -k MAC
r -t 0.404642443 -s 1 -d -1 -p undefined -e 48 -c 2 -a 0 -i 8 -k RTR
r -t 0.404642443 -s 5 -d -1 -p undefined -e 48 -c 2 -a 0 -i 8 -k RTR
r -t 0.404642443 -s 7 -d -1 -p undefined -e 48 -c 2 -a 0 -i 8 -k RTR
r -t 0.404642513 -s 0 -d -1 -p undefined -e 48 -c 2 -a 0 -i 8 -k RTR
r -t 0.404642513 -s 2 -d -1 -p undefined -e 48 -c 2 -a 0 -i 8 -k RTR
r -t 0.404642610 -s 8 -d -1 -p undefined -e 48 -c 2 -a 0 -i 8 -k RTR
r -t 0.404642650 -s 3 -d -1 -p undefined -e 48 -c 2 -a 0 -i 8 -k RTR
r -t 0.404642777 -s 9 -d -1 -p undefined -e 48 -c 2 -a 0 -i 8 -k RTR
r -t 0.404642804 -s 4 -d -1 -p undefined -e 48 -c 2 -a 0 -i 8 -k RTR
+ -t 0.418161768 -s 3 -d -1 -p undefined -e 48 -c 2 -a 0 -i 9 -k RTR 
- -t 0.418161768 -s 3 -d -1 -p undefined -e 48 -c 2 -a 0 -i 9 -k RTR
h -t 0.418161768 -s 3 -d -1 -p undefined -e 48 -c 2 -a 0 -i 9 -k RTR
+ -t 0.418716768 -s 3 -d -1 -p undefined -e 106 -c 2 -a 0 -i 9 -k MAC 
- -t 0.418716768 -s 3 -d -1 -p undefined -e 106 -c 2 -a 0 -i 9 -k MAC
h -t 0.418716768 -s 3 -d -1 -p undefined -e 106 -c 2 -a 0 -i 9 -k MAC
r -t 0.419564935 -s 2 -d -1 -p undefined -e 48 -c 2 -a 0 -i 9 -k MAC
r -t 0.419564935 -s 8 -d -1 -p undefined -e 48 -c 2 -a 0 -i 9 -k MAC
r -t 0.419564935 -s 4 -d -1 -p undefined -e 48 -c 2 -a 0 -i 9 -k MAC
r -t 0.419565004 -s 7 -d -1 -p undefined -e 48 -c 2 -a 0 -i 9 -k MAC
r -t 0.419565004 -s 9 -d -1 -p undefined -e 48 -c 2 -a 0 -i 9 -k MAC
r -t 0.419565102 -s 1 -d -1 -p undefined -e 48 -c 2 -a 0 -i 9 -k MAC
r -t 0.419565141 -s 6 -d -1 -p undefined -e 48 -c 2 -a 0 -i 9 -k MAC
r -t 0.419565268 -s 0 -d -1 -p undefined -e 48 -c 2 -a 0 -i 9 -k MAC
r -t 0.419565296 -s 5 -d -1 -p undefined -e 48 -c 2 -a 0 -i 9 -k MAC
r -t 0.419589935 -s 2 -d -1 -p undefined -e 48 -c 2 -a 0 -i 9 -k RTR
r -t 0.419589935 -s 8 -d -1 -p undefined -e 48 -c 2 -a 0 -i 9 -k RTR
r -t 0.419589935 -s 4 -d -1 -p undefined -e 48 -c 2 -a 0 -i 9 -k RTR
r -t 0.419590004 -s 7 -d -1 -p undefined -e 48 -c 2 -a 0 -i 9 -k RTR
r -t 0.419590004 -s 9 -d -1 -p undefined -e 48 -c 2 -a 0 -i 9 -k RTR
r -t 0.419590102 -s 1 -d -1 -p undefined -e 48 -c 2 -a 0 -i 9 -k RTR
r -t 0.419590141 -s 6 -d -1 -p undefined -e 48 -c 2 -a 0 -i 9 -k RTR
r -t 0.419590268 -s 0 -d -1 -p undefined -e 48 -c 2 -a 0 -i 9 -k RTR
r -t 0.419590296 -s 5 -d -1 -p undefined -e 48 -c 2 -a 0 -i 9 -k RTR
+ -t 1.000000000 -s 0 -d -1 -p tcp -e 40 -c 2 -a 0 -i 10 -k AGT 
- -t 1.000000000 -s 0 -d -1 -p tcp -e 40 -c 2 -a 0 -i 10 -k AGT
h -t 1.000000000 -s 0 -d -1 -p tcp -e 40 -c 2 -a 0 -i 10 -k AGT
d -t 1.000000000 -s 0 -d -1 -p tcp -e 60 -c 2 -a 0 -i 10 -k RTR
+ -t 1.000000000 -s 5 -d -1 -p tcp -e 40 -c 2 -a 0 -i 11 -k AGT 
- -t 1.000000000 -s 5 -d -1 -p tcp -e 40 -c 2 -a 0 -i 11 -k AGT
h -t 1.000000000 -s 5 -d -1 -p tcp -e 40 -c 2 -a 0 -i 11 -k AGT
d -t 1.000000000 -s 5 -d -1 -p tcp -e 60 -c 2 -a 0 -i 11 -k RTR
+ -t 1.754454339 -s 7 -d -1 -p undefined -e 88 -c 2 -a 0 -i 12 -k RTR 
- -t 1.754454339 -s 7 -d -1 -p undefined -e 88 -c 2 -a 0 -i 12 -k RTR
h -t 1.754454339 -s 7 -d -1 -p undefined -e 88 -c 2 -a 0 -i 12 -k RTR
+ -t 1.754529339 -s 7 -d -1 -p undefined -e 146 -c 2 -a 0 -i 12 -k MAC 
- -t 1.754529339 -s 7 -d -1 -p undefined -e 146 -c 2 -a 0 -i 12 -k MAC
h -t 1.754529339 -s 7 -d -1 -p undefined -e 146 -c 2 -a 0 -i 12 -k MAC
r -t 1.755697505 -s 2 -d -1 -p undefined -e 88 -c 2 -a 0 -i 12 -k MAC
r -t 1.755697505 -s 6 -d -1 -p undefined -e 88 -c 2 -a 0 -i 12 -k MAC
r -t 1.755697505 -s 8 -d -1 -p undefined -e 88 -c 2 -a 0 -i 12 -k MAC
r -t 1.755697574 -s 1 -d -1 -p undefined -e 88 -c 2 -a 0 -i 12 -k MAC
r -t 1.755697574 -s 3 -d -1 -p undefined -e 88 -c 2 -a 0 -i 12 -k MAC
r -t 1.755697672 -s 5 -d -1 -p undefined -e 88 -c 2 -a 0 -i 12 -k MAC
r -t 1.755697672 -s 9 -d -1 -p undefined -e 88 -c 2 -a 0 -i 12 -k MAC
r -t 1.755697711 -s 0 -d -1 -p undefined -e 88 -c 2 -a 0 -i 12 -k MAC
r -t 1.755697711 -s 4 -d -1 -p undefined -e 88 -c 2 -a 0 -i 12 -k MAC
r -t 1.755722505 -s 2 -d -1 -p undefined -e 88 -c 2 -a 0 -i 12 -k RTR
r -t 1.755722505 -s 6 -d -1 -p undefined -e 88 -c 2 -a 0 -i 12 -k RTR
r -t 1.755722505 -s 8 -d -1 -p undefined -e 88 -c 2 -a 0 -i 12 -k RTR
r -t 1.755722574 -s 1 -d -1 -p undefined -e 88 -c 2 -a 0 -i 12 -k RTR
r -t 1.755722574 -s 3 -d -1 -p undefined -e 88 -c 2 -a 0 -i 12 -k RTR
r -t 1.755722672 -s 5 -d -1 -p undefined -e 88 -c 2 -a 0 -i 12 -k RTR
r -t 1.755722672 -s 9 -d -1 -p undefined -e 88 -c 2 -a 0 -i 12 -k RTR
r -t 1.755722711 -s 0 -d -1 -p undefined -e 88 -c 2 -a 0 -i 12 -k RTR
r -t 1.755722711 -s 4 -d -1 -p undefined -e 88 -c 2 -a 0 -i 12 -k RTR
+ -t 1.942993999 -s 3 -d -1 -p undefined -e 92 -c 2 -a 0 -i 13 -k RTR 
- -t 1.942993999 -s 3 -d -1 -p undefined -e 92 -c 2 -a 0 -i 13 -k RTR
h -t 1.942993999 -s 3 -d -1 -p undefined -e 92 -c 2 -a 0 -i 13 -k RTR
+ -t 1.943268999 -s 3 -d -1 -p undefined -e 150 -c 2 -a 0 -i 13 -k MAC 
- -t 1.943268999 -s 3 -d -1 -p undefined -e 150 -c 2 -a 0 -i 13 -k MAC
h -t 1.943268999 -s 3 -d -1 -p undefined -e 150 -c 2 -a 0 -i 13 -k MAC
r -t 1.944469166 -s 2 -d -1 -p undefined -e 92 -c 2 -a 0 -i 13 -k MAC
r -t 1.944469166 -s 8 -d -1 -p undefined -e 92 -c 2 -a 0 -i 13 -k MAC
r -t 1.944469166 -s 4 -d -1 -p undefined -e 92 -c 2 -a 0 -i 13 -k MAC
r -t 1.944469235 -s 7 -d -1 -p undefined -e 92 -c 2 -a 0 -i 13 -k MAC
r -t 1.944469235 -s 9 -d -1 -p undefined -e 92 -c 2 -a 0 -i 13 -k MAC
r -t 1.944469332 -s 1 -d -1 -p undefined -e 92 -c 2 -a 0 -i 13 -k MAC
r -t 1.944469372 -s 6 -d -1 -p undefined -e 92 -c 2 -a 0 -i 13 -k MAC
r -t 1.944469499 -s 0 -d -1 -p undefined -e 92 -c 2 -a 0 -i 13 -k MAC
r -t 1.944469526 -s 5 -d -1 -p undefined -e 92 -c 2 -a 0 -i 13 -k MAC
r -t 1.944494166 -s 2 -d -1 -p undefined -e 92 -c 2 -a 0 -i 13 -k RTR
r -t 1.944494166 -s 8 -d -1 -p undefined -e 92 -c 2 -a 0 -i 13 -k RTR
r -t 1.944494166 -s 4 -d -1 -p undefined -e 92 -c 2 -a 0 -i 13 -k RTR
r -t 1.944494235 -s 7 -d -1 -p undefined -e 92 -c 2 -a 0 -i 13 -k RTR
r -t 1.944494235 -s 9 -d -1 -p undefined -e 92 -c 2 -a 0 -i 13 -k RTR
r -t 1.944494332 -s 1 -d -1 -p undefined -e 92 -c 2 -a 0 -i 13 -k RTR
r -t 1.944494372 -s 6 -d -1 -p undefined -e 92 -c 2 -a 0 -i 13 -k RTR
r -t 1.944494499 -s 0 -d -1 -p undefined -e 92 -c 2 -a 0 -i 13 -k RTR
r -t 1.944494526 -s 5 -d -1 -p undefined -e 92 -c 2 -a 0 -i 13 -k RTR
+ -t 1.946886128 -s 1 -d -1 -p undefined -e 92 -c 2 -a 0 -i 14 -k RTR 
- -t 1.946886128 -s 1 -d -1 -p undefined -e 92 -c 2 -a 0 -i 14 -k RTR
h -t 1.946886128 -s 1 -d -1 -p undefined -e 92 -c 2 -a 0 -i 14 -k RTR
+ -t 1.947161128 -s 1 -d -1 -p undefined -e 150 -c 2 -a 0 -i 14 -k MAC 
- -t 1.947161128 -s 1 -d -1 -p undefined -e 150 -c 2 -a 0 -i 14 -k MAC
h -t 1.947161128 -s 1 -d -1 -p undefined -e 150 -c 2 -a 0 -i 14 -k MAC
r -t 1.948361295 -s 0 -d -1 -p undefined -e 92 -c 2 -a 0 -i 14 -k MAC
r -t 1.948361295 -s 6 -d -1 -p undefined -e 92 -c 2 -a 0 -i 14 -k MAC
r -t 1.948361295 -s 2 -d -1 -p undefined -e 92 -c 2 -a 0 -i 14 -k MAC
r -t 1.948361364 -s 5 -d -1 -p undefined -e 92 -c 2 -a 0 -i 14 -k MAC
r -t 1.948361364 -s 7 -d -1 -p undefined -e 92 -c 2 -a 0 -i 14 -k MAC
r -t 1.948361462 -s 3 -d -1 -p undefined -e 92 -c 2 -a 0 -i 14 -k MAC
r -t 1.948361501 -s 8 -d -1 -p undefined -e 92 -c 2 -a 0 -i 14 -k MAC
r -t 1.948361628 -s 4 -d -1 -p undefined -e 92 -c 2 -a 0 -i 14 -k MAC
r -t 1.948361655 -s 9 -d -1 -p undefined -e 92 -c 2 -a 0 -i 14 -k MAC
r -t 1.948386295 -s 0 -d -1 -p undefined -e 92 -c 2 -a 0 -i 14 -k RTR
r -t 1.948386295 -s 6 -d -1 -p undefined -e 92 -c 2 -a 0 -i 14 -k RTR
r -t 1.948386295 -s 2 -d -1 -p undefined -e 92 -c 2 -a 0 -i 14 -k RTR
r -t 1.948386364 -s 5 -d -1 -p undefined -e 92 -c 2 -a 0 -i 14 -k RTR
r -t 1.948386364 -s 7 -d -1 -p undefined -e 92 -c 2 -a 0 -i 14 -k RTR
r -t 1.948386462 -s 3 -d -1 -p undefined -e 92 -c 2 -a 0 -i 14 -k RTR
r -t 1.948386501 -s 8 -d -1 -p undefined -e 92 -c 2 -a 0 -i 14 -k RTR
r -t 1.948386628 -s 4 -d -1 -p undefined -e 92 -c 2 -a 0 -i 14 -k RTR
r -t 1.948386655 -s 9 -d -1 -p undefined -e 92 -c 2 -a 0 -i 14 -k RTR
+ -t 1.957987265 -s 2 -d -1 -p undefined -e 88 -c 2 -a 0 -i 15 -k RTR 
- -t 1.957987265 -s 2 -d -1 -p undefined -e 88 -c 2 -a 0 -i 15 -k RTR
h -t 1.957987265 -s 2 -d -1 -p undefined -e 88 -c 2 -a 0 -i 15 -k RTR
+ -t 1.958182265 -s 2 -d -1 -p undefined -e 146 -c 2 -a 0 -i 15 -k MAC 
- -t 1.958182265 -s 2 -d -1 -p undefined -e 146 -c 2 -a 0 -i 15 -k MAC
h -t 1.958182265 -s 2 -d -1 -p undefined -e 146 -c 2 -a 0 -i 15 -k MAC
+ -t 1.958275831 -s 5 -d -1 -p undefined -e 92 -c 2 -a 0 -i 16 -k RTR 
- -t 1.958275831 -s 5 -d -1 -p undefined -e 92 -c 2 -a 0 -i 16 -k RTR
h -t 1.958275831 -s 5 -d -1 -p undefined -e 92 -c 2 -a 0 -i 16 -k RTR
r -t 1.959350432 -s 1 -d -1 -p undefined -e 88 -c 2 -a 0 -i 15 -k MAC
r -t 1.959350432 -s 7 -d -1 -p undefined -e 88 -c 2 -a 0 -i 15 -k MAC
r -t 1.959350432 -s 3 -d -1 -p undefined -e 88 -c 2 -a 0 -i 15 -k MAC
r -t 1.959350501 -s 6 -d -1 -p undefined -e 88 -c 2 -a 0 -i 15 -k MAC
r -t 1.959350501 -s 8 -d -1 -p undefined -e 88 -c 2 -a 0 -i 15 -k MAC
r -t 1.959350598 -s 0 -d -1 -p undefined -e 88 -c 2 -a 0 -i 15 -k MAC
r -t 1.959350598 -s 4 -d -1 -p undefined -e 88 -c 2 -a 0 -i 15 -k MAC
r -t 1.959350638 -s 5 -d -1 -p undefined -e 88 -c 2 -a 0 -i 15 -k MAC
r -t 1.959350638 -s 9 -d -1 -p undefined -e 88 -c 2 -a 0 -i 15 -k MAC
r -t 1.959375432 -s 1 -d -1 -p undefined -e 88 -c 2 -a 0 -i 15 -k RTR
r -t 1.959375432 -s 7 -d -1 -p undefined -e 88 -c 2 -a 0 -i 15 -k RTR
r -t 1.959375432 -s 3 -d -1 -p undefined -e 88 -c 2 -a 0 -i 15 -k RTR
r -t 1.959375501 -s 6 -d -1 -p undefined -e 88 -c 2 -a 0 -i 15 -k RTR
r -t 1.959375501 -s 8 -d -1 -p undefined -e 88 -c 2 -a 0 -i 15 -k RTR
r -t 1.959375598 -s 0 -d -1 -p undefined -e 88 -c 2 -a 0 -i 15 -k RTR
r -t 1.959375598 -s 4 -d -1 -p undefined -e 88 -c 2 -a 0 -i 15 -k RTR
r -t 1.959375638 -s 5 -d -1 -p undefined -e 88 -c 2 -a 0 -i 15 -k RTR
r -t 1.959375638 -s 9 -d -1 -p undefined -e 88 -c 2 -a 0 -i 15 -k RTR
+ -t 1.959460638 -s 5 -d -1 -p undefined -e 150 -c 2 -a 0 -i 16 -k MAC 
- -t 1.959460638 -s 5 -d -1 -p undefined -e 150 -c 2 -a 0 -i 16 -k MAC
h -t 1.959460638 -s 5 -d -1 -p undefined -e 150 -c 2 -a 0 -i 16 -k MAC
r -t 1.960660804 -s 0 -d -1 -p undefined -e 92 -c 2 -a 0 -i 16 -k MAC
r -t 1.960660804 -s 6 -d -1 -p undefined -e 92 -c 2 -a 0 -i 16 -k MAC
r -t 1.960660874 -s 1 -d -1 -p undefined -e 92 -c 2 -a 0 -i 16 -k MAC
r -t 1.960660971 -s 7 -d -1 -p undefined -e 92 -c 2 -a 0 -i 16 -k MAC
r -t 1.960661010 -s 2 -d -1 -p undefined -e 92 -c 2 -a 0 -i 16 -k MAC
r -t 1.960661138 -s 8 -d -1 -p undefined -e 92 -c 2 -a 0 -i 16 -k MAC
r -t 1.960661165 -s 3 -d -1 -p undefined -e 92 -c 2 -a 0 -i 16 -k MAC
r -t 1.960661304 -s 9 -d -1 -p undefined -e 92 -c 2 -a 0 -i 16 -k MAC
r -t 1.960661325 -s 4 -d -1 -p undefined -e 92 -c 2 -a 0 -i 16 -k MAC
r -t 1.960685804 -s 0 -d -1 -p undefined -e 92 -c 2 -a 0 -i 16 -k RTR
r -t 1.960685804 -s 6 -d -1 -p undefined -e 92 -c 2 -a 0 -i 16 -k RTR
r -t 1.960685874 -s 1 -d -1 -p undefined -e 92 -c 2 -a 0 -i 16 -k RTR
r -t 1.960685971 -s 7 -d -1 -p undefined -e 92 -c 2 -a 0 -i 16 -k RTR
r -t 1.960686010 -s 2 -d -1 -p undefined -e 92 -c 2 -a 0 -i 16 -k RTR
r -t 1.960686138 -s 8 -d -1 -p undefined -e 92 -c 2 -a 0 -i 16 -k RTR
r -t 1.960686165 -s 3 -d -1 -p undefined -e 92 -c 2 -a 0 -i 16 -k RTR
r -t 1.960686304 -s 9 -d -1 -p undefined -e 92 -c 2 -a 0 -i 16 -k RTR
r -t 1.960686325 -s 4 -d -1 -p undefined -e 92 -c 2 -a 0 -i 16 -k RTR
+ -t 1.968751111 -s 9 -d -1 -p undefined -e 92 -c 2 -a 0 -i 17 -k RTR 
- -t 1.968751111 -s 9 -d -1 -p undefined -e 92 -c 2 -a 0 -i 17 -k RTR
h -t 1.968751111 -s 9 -d -1 -p undefined -e 92 -c 2 -a 0 -i 17 -k RTR
+ -t 1.969426111 -s 9 -d -1 -p undefined -e 150 -c 2 -a 0 -i 17 -k MAC 
- -t 1.969426111 -s 9 -d -1 -p undefined -e 150 -c 2 -a 0 -i 17 -k MAC
h -t 1.969426111 -s 9 -d -1 -p undefined -e 150 -c 2 -a 0 -i 17 -k MAC
r -t 1.970626278 -s 4 -d -1 -p undefined -e 92 -c 2 -a 0 -i 17 -k MAC
r -t 1.970626278 -s 8 -d -1 -p undefined -e 92 -c 2 -a 0 -i 17 -k MAC
r -t 1.970626347 -s 3 -d -1 -p undefined -e 92 -c 2 -a 0 -i 17 -k MAC
r -t 1.970626444 -s 7 -d -1 -p undefined -e 92 -c 2 -a 0 -i 17 -k MAC
r -t 1.970626484 -s 2 -d -1 -p undefined -e 92 -c 2 -a 0 -i 17 -k MAC
r -t 1.970626611 -s 6 -d -1 -p undefined -e 92 -c 2 -a 0 -i 17 -k MAC
r -t 1.970626638 -s 1 -d -1 -p undefined -e 92 -c 2 -a 0 -i 17 -k MAC
r -t 1.970626778 -s 5 -d -1 -p undefined -e 92 -c 2 -a 0 -i 17 -k MAC
r -t 1.970626798 -s 0 -d -1 -p undefined -e 92 -c 2 -a 0 -i 17 -k MAC
r -t 1.970651278 -s 4 -d -1 -p undefined -e 92 -c 2 -a 0 -i 17 -k RTR
r -t 1.970651278 -s 8 -d -1 -p undefined -e 92 -c 2 -a 0 -i 17 -k RTR
r -t 1.970651347 -s 3 -d -1 -p undefined -e 92 -c 2 -a 0 -i 17 -k RTR
r -t 1.970651444 -s 7 -d -1 -p undefined -e 92 -c 2 -a 0 -i 17 -k RTR
r -t 1.970651484 -s 2 -d -1 -p undefined -e 92 -c 2 -a 0 -i 17 -k RTR
r -t 1.970651611 -s 6 -d -1 -p undefined -e 92 -c 2 -a 0 -i 17 -k RTR
r -t 1.970651638 -s 1 -d -1 -p undefined -e 92 -c 2 -a 0 -i 17 -k RTR
r -t 1.970651778 -s 5 -d -1 -p undefined -e 92 -c 2 -a 0 -i 17 -k RTR
r -t 1.970651798 -s 0 -d -1 -p undefined -e 92 -c 2 -a 0 -i 17 -k RTR
+ -t 2.007294196 -s 8 -d -1 -p undefined -e 88 -c 2 -a 0 -i 18 -k RTR 
- -t 2.007294196 -s 8 -d -1 -p undefined -e 88 -c 2 -a 0 -i 18 -k RTR
h -t 2.007294196 -s 8 -d -1 -p undefined -e 88 -c 2 -a 0 -i 18 -k RTR
+ -t 2.007909196 -s 8 -d -1 -p undefined -e 146 -c 2 -a 0 -i 18 -k MAC 
- -t 2.007909196 -s 8 -d -1 -p undefined -e 146 -c 2 -a 0 -i 18 -k MAC
h -t 2.007909196 -s 8 -d -1 -p undefined -e 146 -c 2 -a 0 -i 18 -k MAC
r -t 2.009077363 -s 3 -d -1 -p undefined -e 88 -c 2 -a 0 -i 18 -k MAC
r -t 2.009077363 -s 7 -d -1 -p undefined -e 88 -c 2 -a 0 -i 18 -k MAC
r -t 2.009077363 -s 9 -d -1 -p undefined -e 88 -c 2 -a 0 -i 18 -k MAC
r -t 2.009077432 -s 2 -d -1 -p undefined -e 88 -c 2 -a 0 -i 18 -k MAC
r -t 2.009077432 -s 4 -d -1 -p undefined -e 88 -c 2 -a 0 -i 18 -k MAC
r -t 2.009077530 -s 6 -d -1 -p undefined -e 88 -c 2 -a 0 -i 18 -k MAC
r -t 2.009077569 -s 1 -d -1 -p undefined -e 88 -c 2 -a 0 -i 18 -k MAC
r -t 2.009077696 -s 5 -d -1 -p undefined -e 88 -c 2 -a 0 -i 18 -k MAC
r -t 2.009077723 -s 0 -d -1 -p undefined -e 88 -c 2 -a 0 -i 18 -k MAC
r -t 2.009102363 -s 3 -d -1 -p undefined -e 88 -c 2 -a 0 -i 18 -k RTR
r -t 2.009102363 -s 7 -d -1 -p undefined -e 88 -c 2 -a 0 -i 18 -k RTR
r -t 2.009102363 -s 9 -d -1 -p undefined -e 88 -c 2 -a 0 -i 18 -k RTR
r -t 2.009102432 -s 2 -d -1 -p undefined -e 88 -c 2 -a 0 -i 18 -k RTR
r -t 2.009102432 -s 4 -d -1 -p undefined -e 88 -c 2 -a 0 -i 18 -k RTR
r -t 2.009102530 -s 6 -d -1 -p undefined -e 88 -c 2 -a 0 -i 18 -k RTR
r -t 2.009102569 -s 1 -d -1 -p undefined -e 88 -c 2 -a 0 -i 18 -k RTR
r -t 2.009102696 -s 5 -d -1 -p undefined -e 88 -c 2 -a 0 -i 18 -k RTR
r -t 2.009102723 -s 0 -d -1 -p undefined -e 88 -c 2 -a 0 -i 18 -k RTR
+ -t 2.299037582 -s 6 -d -1 -p undefined -e 92 -c 2 -a 0 -i 19 -k RTR 
- -t 2.299037582 -s 6 -d -1 -p undefined -e 92 -c 2 -a 0 -i 19 -k RTR
h -t 2.299037582 -s 6 -d -1 -p undefined -e 92 -c 2 -a 0 -i 19 -k RTR
+ -t 2.299412582 -s 6 -d -1 -p undefined -e 150 -c 2 -a 0 -i 19 -k MAC 
- -t 2.299412582 -s 6 -d -1 -p undefined -e 150 -c 2 -a 0 -i 19 -k MAC