n -t * -s 0  -x 289 -y 394 -Z 0 -z 20  -v circle -c black
n -t * -s 1  -x 339 -y 394 -Z 0 -z 20  -v circle -c black
n -t * -s 2  -x 389 -y 394 -Z 0 -z 20  -v circle -c black
n -t * -s 3  -x 439 -y 394 -Z 0 -z 20  -v circle -c black
n -t * -s 4  -x 489 -y 394 -Z 0 -z 20  -v circle -c black
n -t * -s 5  -x 289 -y 344 -Z 0 -z 20  -v circle -c black
n -t * -s 6  -x 339 -y 344 -Z 0 -z 20  -v circle -c black
n -t * -s 7  -x 389 -y 344 -Z 0 -z 20  -v circle -c black
n -t * -s 8  -x 439 -y 344 -Z 0 -z 20  -v circle -c black
n -t * -s 9  -x 489 -y 344 -Z 0 -z 20  -v circle -c black
V -t * -v 1.0a5 -a 0
W -t * -x 589 -y 494
A -t * -n 1 -p 0 -o 0x7fffffff -c 30 -a 1
A -t * -h 1 -m 1073741823 -s 0
+ -t 1.000000000 -s 0 -d -1 -p tcp -e 40 -c 2 -a 0 -i 0 -k AGT 
- -t 1.000000000 -s 0 -d -1 -p tcp -e 40 -c 2 -a 0 -i 0 -k AGT
h -t 1.000000000 -s 0 -d -1 -p tcp -e 40 -c 2 -a 0 -i 0 -k AGT
+ -t 1.000000000 -s 5 -d -1 -p tcp -e 40 -c 2 -a 0 -i 2 -k AGT 
- -t 1.000000000 -s 5 -d -1 -p tcp -e 40 -c 2 -a 0 -i 2 -k AGT
h -t 1.000000000 -s 5 -d -1 -p tcp -e 40 -c 2 -a 0 -i 2 -k AGT
+ -t 1.003738358 -s 0 -d -1 -p DSR -e 32 -c 2 -a 0 -i 1 -k RTR 
- -t 1.003738358 -s 0 -d -1 -p DSR -e 32 -c 2 -a 0 -i 1 -k RTR
h -t 1.003738358 -s 0 -d -1 -p DSR -e 32 -c 2 -a 0 -i 1 -k RTR
+ -t 1.003933358 -s 0 -d -1 -p DSR -e 90 -c 2 -a 0 -i 1 -k MAC 
- -t 1.003933358 -s 0 -d -1 -p DSR -e 90 -c 2 -a 0 -i 1 -k MAC
h -t 1.003933358 -s 0 -d -1 -p DSR -e 90 -c 2 -a 0 -i 1 -k MAC
r -t 1.004653525 -s 5 -d -1 -p DSR -e 32 -c 2 -a 0 -i 1 -k MAC
r -t 1.004653525 -s 1 -d -1 -p DSR -e 32 -c 2 -a 0 -i 1 -k MAC
r -t 1.004653594 -s 6 -d -1 -p DSR -e 32 -c 2 -a 0 -i 1 -k MAC
r -t 1.004653691 -s 2 -d -1 -p DSR -e 32 -c 2 -a 0 -i 1 -k MAC
r -t 1.004653731 -s 7 -d -1 -p DSR -e 32 -c 2 -a 0 -i 1 -k MAC
r -t 1.004653858 -s 3 -d -1 -p DSR -e 32 -c 2 -a 0 -i 1 -k MAC
r -t 1.004653885 -s 8 -d -1 -p DSR -e 32 -c 2 -a 0 -i 1 -k MAC
r -t 1.004654025 -s 4 -d -1 -p DSR -e 32 -c 2 -a 0 -i 1 -k MAC
r -t 1.004654045 -s 9 -d -1 -p DSR -e 32 -c 2 -a 0 -i 1 -k MAC
+ -t 1.007769418 -s 5 -d -1 -p DSR -e 32 -c 2 -a 0 -i 3 -k RTR 
- -t 1.007769418 -s 5 -d -1 -p DSR -e 32 -c 2 -a 0 -i 3 -k RTR
h -t 1.007769418 -s 5 -d -1 -p DSR -e 32 -c 2 -a 0 -i 3 -k RTR
+ -t 1.008124418 -s 5 -d -1 -p DSR -e 90 -c 2 -a 0 -i 3 -k MAC 
- -t 1.008124418 -s 5 -d -1 -p DSR -e 90 -c 2 -a 0 -i 3 -k MAC
h -t 1.008124418 -s 5 -d -1 -p DSR -e 90 -c 2 -a 0 -i 3 -k MAC
r -t 1.008844585 -s 0 -d -1 -p DSR -e 32 -c 2 -a 0 -i 3 -k MAC
r -t 1.008844585 -s 6 -d -1 -p DSR -e 32 -c 2 -a 0 -i 3 -k MAC
r -t 1.008844654 -s 1 -d -1 -p DSR -e 32 -c 2 -a 0 -i 3 -k MAC
r -t 1.008844751 -s 7 -d -1 -p DSR -e 32 -c 2 -a 0 -i 3 -k MAC
r -t 1.008844791 -s 2 -d -1 -p DSR -e 32 -c 2 -a 0 -i 3 -k MAC
r -t 1.008844918 -s 8 -d -1 -p DSR -e 32 -c 2 -a 0 -i 3 -k MAC
r -t 1.008844945 -s 3 -d -1 -p DSR -e 32 -c 2 -a 0 -i 3 -k MAC
r -t 1.008845085 -s 9 -d -1 -p DSR -e 32 -c 2 -a 0 -i 3 -k MAC
r -t 1.008845105 -s 4 -d -1 -p DSR -e 32 -c 2 -a 0 -i 3 -k MAC
+ -t 1.011690122 -s 9 -d 0 -p DSR -e 44 -c 2 -a 0 -i 4 -k RTR 
- -t 1.011690122 -s 9 -d 0 -p DSR -e 44 -c 2 -a 0 -i 4 -k RTR
h -t 1.011690122 -s 9 -d 0 -p DSR -e 44 -c 2 -a 0 -i 4 -k RTR
+ -t 1.012005122 -s 9 -d -1 -p ARP -e 86 -c 2 -a 0 -i 0 -k MAC 
- -t 1.012005122 -s 9 -d -1 -p ARP -e 86 -c 2 -a 0 -i 0 -k MAC
h -t 1.012005122 -s 9 -d -1 -p ARP -e 86 -c 2 -a 0 -i 0 -k MAC
r -t 1.012693288 -s 4 -d -1 -p ARP -e 28 -c 2 -a 0 -i 0 -k MAC
r -t 1.012693288 -s 8 -d -1 -p ARP -e 28 -c 2 -a 0 -i 0 -k MAC
r -t 1.012693357 -s 3 -d -1 -p ARP -e 28 -c 2 -a 0 -i 0 -k MAC
r -t 1.012693455 -s 7 -d -1 -p ARP -e 28 -c 2 -a 0 -i 0 -k MAC
r -t 1.012693494 -s 2 -d -1 -p ARP -e 28 -c 2 -a 0 -i 0 -k MAC
r -t 1.012693622 -s 6 -d -1 -p ARP -e 28 -c 2 -a 0 -i 0 -k MAC
r -t 1.012693649 -s 1 -d -1 -p ARP -e 28 -c 2 -a 0 -i 0 -k MAC
r -t 1.012693788 -s 5 -d -1 -p ARP -e 28 -c 2 -a 0 -i 0 -k MAC
r -t 1.012693809 -s 0 -d -1 -p ARP -e 28 -c 2 -a 0 -i 0 -k MAC
+ -t 1.013128809 -s 0 -d -1 -p RTS -e 44 -c 2 -a 0 -i 0 -k MAC 
- -t 1.013128809 -s 0 -d -1 -p RTS -e 44 -c 2 -a 0 -i 0 -k MAC
h -t 1.013128809 -s 0 -d -1 -p RTS -e 44 -c 2 -a 0 -i 0 -k MAC
r -t 1.013481496 -s 9 -d -1 -p RTS -e 44 -c 2 -a 0 -i 0 -k MAC
+ -t 1.013491496 -s 9 -d -1 -p CTS -e 38 -c 2 -a 0 -i 0 -k MAC 
- -t 1.013491496 -s 9 -d -1 -p CTS -e 38 -c 2 -a 0 -i 0 -k MAC
h -t 1.013491496 -s 9 -d -1 -p CTS -e 38 -c 2 -a 0 -i 0 -k MAC
r -t 1.013796183 -s 0 -d -1 -p CTS -e 38 -c 2 -a 0 -i 0 -k MAC
+ -t 1.013806183 -s 0 -d -1 -p ARP -e 86 -c 2 -a 0 -i 0 -k MAC 
- -t 1.013806183 -s 0 -d -1 -p ARP -e 86 -c 2 -a 0 -i 0 -k MAC
h -t 1.013806183 -s 0 -d -1 -p ARP -e 86 -c 2 -a 0 -i 0 -k MAC
r -t 1.014494870 -s 9 -d -1 -p ARP -e 28 -c 2 -a 0 -i 0 -k MAC
+ -t 1.014504870 -s 9 -d -1 -p ACK -e 38 -c 2 -a 0 -i 0 -k MAC 
- -t 1.014504870 -s 9 -d -1 -p ACK -e 38 -c 2 -a 0 -i 0 -k MAC
h -t 1.014504870 -s 9 -d -1 -p ACK -e 38 -c 2 -a 0 -i 0 -k MAC
r -t 1.014809558 -s 0 -d -1 -p ACK -e 38 -c 2 -a 0 -i 0 -k MAC
+ -t 1.014938870 -s 9 -d -1 -p RTS -e 44 -c 2 -a 0 -i 0 -k MAC 
- -t 1.014938870 -s 9 -d -1 -p RTS -e 44 -c 2 -a 0 -i 0 -k MAC
h -t 1.014938870 -s 9 -d -1 -p RTS -e 44 -c 2 -a 0 -i 0 -k MAC
r -t 1.015291558 -s 0 -d -1 -p RTS -e 44 -c 2 -a 0 -i 0 -k MAC
+ -t 1.015301558 -s 0 -d -1 -p CTS -e 38 -c 2 -a 0 -i 0 -k MAC 
- -t 1.015301558 -s 0 -d -1 -p CTS -e 38 -c 2 -a 0 -i 0 -k MAC
h -t 1.015301558 -s 0 -d -1 -p CTS -e 38 -c 2 -a 0 -i 0 -k MAC
r -t 1.015606245 -s 9 -d -1 -p CTS -e 38 -c 2 -a 0 -i 0 -k MAC
+ -t 1.015616245 -s 9 -d 0 -p DSR -e 102 -c 2 -a 0 -i 4 -k MAC 
- -t 1.015616245 -s 9 -d 0 -p DSR -e 102 -c 2 -a 0 -i 4 -k MAC
h -t 1.015616245 -s 9 -d 0 -p DSR -e 102 -c 2 -a 0 -i 4 -k MAC
r -t 1.016432932 -s 0 -d 0 -p DSR -e 44 -c 2 -a 0 -i 4 -k MAC
+ -t 1.016442932 -s 0 -d -1 -p ACK -e 38 -c 2 -a 0 -i 0 -k MAC 
- -t 1.016442932 -s 0 -d -1 -p ACK -e 38 -c 2 -a 0 -i 0 -k MAC
h -t 1.016442932 -s 0 -d -1 -p ACK -e 38 -c 2 -a 0 -i 0 -k MAC
+ -t 1.016457932 -s 0 -d 9 -p tcp -e 76 -c 2 -a 0 -i 0 -k RTR 
- -t 1.016457932 -s 0 -d 9 -p tcp -e 76 -c 2 -a 0 -i 0 -k RTR
h -t 1.016457932 -s 0 -d 9 -p tcp -e 76 -c 2 -a 0 -i 0 -k RTR
r -t 1.016747619 -s 9 -d -1 -p ACK -e 38 -c 2 -a 0 -i 0 -k MAC
+ -t 1.017276932 -s 0 -d -1 -p RTS -e 44 -c 2 -a 0 -i 0 -k MAC 
- -t 1.017276932 -s 0 -d -1 -p RTS -e 44 -c 2 -a 0 -i 0 -k MAC
h -t 1.017276932 -s 0 -d -1 -p RTS -e 44 -c 2 -a 0 -i 0 -k MAC
r -t 1.017629619 -s 9 -d -1 -p RTS -e 44 -c 2 -a 0 -i 0 -k MAC
+ -t 1.017639619 -s 9 -d -1 -p CTS -e 38 -c 2 -a 0 -i 0 -k MAC 
- -t 1.017639619 -s 9 -d -1 -p CTS -e 38 -c 2 -a 0 -i 0 -k MAC
h -t 1.017639619 -s 9 -d -1 -p CTS -e 38 -c 2 -a 0 -i 0 -k MAC
r -t 1.017944306 -s 0 -d -1 -p CTS -e 38 -c 2 -a 0 -i 0 -k MAC
+ -t 1.017954306 -s 0 -d 9 -p tcp -e 134 -c 2 -a 0 -i 0 -k MAC 
- -t 1.017954306 -s 0 -d 9 -p tcp -e 134 -c 2 -a 0 -i 0 -k MAC
h -t 1.017954306 -s 0 -d 9 -p tcp -e 134 -c 2 -a 0 -i 0 -k MAC
+ -t 1.018108067 -s 4 -d 5 -p DSR -e 44 -c 2 -a 0 -i 6 -k RTR 
- -t 1.018108067 -s 4 -d 5 -p DSR -e 44 -c 2 -a 0 -i 6 -k RTR
h -t 1.018108067 -s 4 -d 5 -p DSR -e 44 -c 2 -a 0 -i 6 -k RTR
r -t 1.019026993 -s 9 -d 9 -p tcp -e 76 -c 2 -a 0 -i 0 -k MAC
+ -t 1.019036993 -s 9 -d -1 -p ACK -e 38 -c 2 -a 0 -i 0 -k MAC 
- -t 1.019036993 -s 9 -d -1 -p ACK -e 38 -c 2 -a 0 -i 0 -k MAC
h -t 1.019036993 -s 9 -d -1 -p ACK -e 38 -c 2 -a 0 -i 0 -k MAC
r -t 1.019051993 -s 9 -d 9 -p tcp -e 40 -c 2 -a 0 -i 0 -k AGT
+ -t 1.019051993 -s 9 -d -1 -p ack -e 40 -c 2 -a 0 -i 8 -k AGT 
- -t 1.019051993 -s 9 -d -1 -p ack -e 40 -c 2 -a 0 -i 8 -k AGT
h -t 1.019051993 -s 9 -d -1 -p ack -e 40 -c 2 -a 0 -i 8 -k AGT
+ -t 1.019051993 -s 9 -d 0 -p ack -e 76 -c 2 -a 0 -i 8 -k RTR 
- -t 1.019051993 -s 9 -d 0 -p ack -e 76 -c 2 -a 0 -i 8 -k RTR
h -t 1.019051993 -s 9 -d 0 -p ack -e 76 -c 2 -a 0 -i 8 -k RTR
r -t 1.019341681 -s 0 -d -1 -p ACK -e 38 -c 2 -a 0 -i 0 -k MAC
+ -t 1.019490993 -s 9 -d -1 -p RTS -e 44 -c 2 -a 0 -i 0 -k MAC 
- -t 1.019490993 -s 9 -d -1 -p RTS -e 44 -c 2 -a 0 -i 0 -k MAC
h -t 1.019490993 -s 9 -d -1 -p RTS -e 44 -c 2 -a 0 -i 0 -k MAC
r -t 1.019843681 -s 0 -d -1 -p RTS -e 44 -c 2 -a 0 -i 0 -k MAC
+ -t 1.019853681 -s 0 -d -1 -p CTS -e 38 -c 2 -a 0 -i 0 -k MAC 
- -t 1.019853681 -s 0 -d -1 -p CTS -e 38 -c 2 -a 0 -i 0 -k MAC
h -t 1.019853681 -s 0 -d -1 -p CTS -e 38 -c 2 -a 0 -i 0 -k MAC
r -t 1.020158368 -s 9 -d -1 -p CTS -e 38 -c 2 -a 0 -i 0 -k MAC
+ -t 1.020168368 -s 9 -d 0 -p ack -e 134 -c 2 -a 0 -i 8 -k MAC 
- -t 1.020168368 -s 9 -d 0 -p ack -e 134 -c 2 -a 0 -i 8 -k MAC
h -t 1.020168368 -s 9 -d 0 -p ack -e 134 -c 2 -a 0 -i 8 -k MAC
r -t 1.021241055 -s 0 -d 0 -p ack -e 76 -c 2 -a 0 -i 8 -k MAC
+ -t 1.021251055 -s 0 -d -1 -p ACK -e 38 -c 2 -a 0 -i 0 -k MAC 
- -t 1.021251055 -s 0 -d -1 -p ACK -e 38 -c 2 -a 0 -i 0 -k MAC
h -t 1.021251055 -s 0 -d -1 -p ACK -e 38 -c 2 -a 0 -i 0 -k MAC
r -t 1.021266055 -s 0 -d 0 -p ack -e 40 -c 2 -a 0 -i 8 -k AGT
+ -t 1.021266055 -s 0 -d -1 -p tcp -e 1540 -c 2 -a 0 -i 9 -k AGT 
- -t 1.021266055 -s 0 -d -1 -p tcp -e 1540 -c 2 -a 0 -i 9 -k AGT
h -t 1.021266055 -s 0 -d -1 -p tcp -e 1540 -c 2 -a 0 -i 9 -k AGT
+ -t 1.021266055 -s 0 -d -1 -p tcp -e 1540 -c 2 -a 0 -i 10 -k AGT 
- -t 1.021266055 -s 0 -d -1 -p tcp -e 1540 -c 2 -a 0 -i 10 -k AGT
h -t 1.021266055 -s 0 -d -1 -p tcp -e 1540 -c 2 -a 0 -i 10 -k AGT
+ -t 1.021266055 -s 0 -d 9 -p tcp -e 1576 -c 2 -a 0 -i 9 -k RTR 
- -t 1.021266055 -s 0 -d 9 -p tcp -e 1576 -c 2 -a 0 -i 9 -k RTR
h -t 1.021266055 -s 0 -d 9 -p tcp -e 1576 -c 2 -a 0 -i 9 -k RTR
+ -t 1.021266055 -s 0 -d 9 -p tcp -e 1576 -c 2 -a 0 -i 10 -k RTR 
- -t 1.021266055 -s 0 -d 9 -p tcp -e 1576 -c 2 -a 0 -i 10 -k RTR
h -t 1.021266055 -s 0 -d 9 -p tcp -e 1576 -c 2 -a 0 -i 10 -k RTR
r -t 1.021555742 -s 9 -d -1 -p ACK -e 38 -c 2 -a 0 -i 0 -k MAC
+ -t 1.021745055 -s 0 -d -1 -p RTS -e 44 -c 2 -a 0 -i 0 -k MAC 
- -t 1.021745055 -s 0 -d -1 -p RTS -e 44 -c 2 -a 0 -i 0 -k MAC
h -t 1.021745055 -s 0 -d -1 -p RTS -e 44 -c 2 -a 0 -i 0 -k MAC
r -t 1.022097742 -s 9 -d -1 -p RTS -e 44 -c 2 -a 0 -i 0 -k MAC
+ -t 1.022107742 -s 9 -d -1 -p CTS -e 38 -c 2 -a 0 -i 0 -k MAC 
- -t 1.022107742 -s 9 -d -1 -p CTS -e 38 -c 2 -a 0 -i 0 -k MAC
h -t 1.022107742 -s 9 -d -1 -p CTS -e 38 -c 2 -a 0 -i 0 -k MAC
r -t 1.022412429 -s 0 -d -1 -p CTS -e 38 -c 2 -a 0 -i 0 -k MAC
+ -t 1.022422429 -s 0 -d 9 -p tcp -e 1634 -c 2 -a 0 -i 9 -k MAC 
- -t 1.022422429 -s 0 -d 9 -p tcp -e 1634 -c 2 -a 0 -i 9 -k MAC
h -t 1.022422429 -s 0 -d 9 -p tcp -e 1634 -c 2 -a 0 -i 9 -k MAC
r -t 1.035495117 -s 9 -d 9 -p tcp -e 1576 -c 2 -a 0 -i 9 -k MAC
+ -t 1.035505117 -s 9 -d -1 -p ACK -e 38 -c 2 -a 0 -i 0 -k MAC 
- -t 1.035505117 -s 9 -d -1 -p ACK -e 38 -c 2 -a 0 -i 0 -k MAC
h -t 1.035505117 -s 9 -d -1 -p ACK -e 38 -c 2 -a 0 -i 0 -k MAC
r -t 1.035520117 -s 9 -d 9 -p tcp -e 1540 -c 2 -a 0 -i 9 -k AGT
+ -t 1.035520117 -s 9 -d -1 -p ack -e 40 -c 2 -a 0 -i 11 -k AGT 
- -t 1.035520117 -s 9 -d -1 -p ack -e 40 -c 2 -a 0 -i 11 -k AGT
h -t 1.035520117 -s 9 -d -1 -p ack -e 40 -c 2 -a 0 -i 11 -k AGT
+ -t 1.035520117 -s 9 -d 0 -p ack -e 76 -c 2 -a 0 -i 11 -k RTR 
- -t 1.035520117 -s 9 -d 0 -p ack -e 76 -c 2 -a 0 -i 11 -k RTR
h -t 1.035520117 -s 9 -d 0 -p ack -e 76 -c 2 -a 0 -i 11 -k RTR
r -t 1.035809804 -s 0 -d -1 -p ACK -e 38 -c 2 -a 0 -i 0 -k MAC
+ -t 1.036099283 -s 4 -d -1 -p ARP -e 86 -c 2 -a 0 -i 0 -k MAC 
- -t 1.036099283 -s 4 -d -1 -p ARP -e 86 -c 2 -a 0 -i 0 -k MAC
h -t 1.036099283 -s 4 -d -1 -p ARP -e 86 -c 2 -a 0 -i 0 -k MAC
r -t 1.036787450 -s 3 -d -1 -p ARP -e 28 -c 2 -a 0 -i 0 -k MAC
r -t 1.036787450 -s 9 -d -1 -p ARP -e 28 -c 2 -a 0 -i 0 -k MAC
r -t 1.036787519 -s 8 -d -1 -p ARP -e 28 -c 2 -a 0 -i 0 -k MAC
r -t 1.036787617 -s 2 -d -1 -p ARP -e 28 -c 2 -a 0 -i 0 -k MAC
r -t 1.036787656 -s 7 -d -1 -p ARP -e 28 -c 2 -a 0 -i 0 -k MAC
r -t 1.036787783 -s 1 -d -1 -p ARP -e 28 -c 2 -a 0 -i 0 -k MAC
r -t 1.036787810 -s 6 -d -1 -p ARP -e 28 -c 2 -a 0 -i 0 -k MAC
r -t 1.036787950 -s 0 -d -1 -p ARP -e 28 -c 2 -a 0 -i 0 -k MAC
r -t 1.036787970 -s 5 -d -1 -p ARP -e 28 -c 2 -a 0 -i 0 -k MAC
+ -t 1.036877450 -s 9 -d -1 -p RTS -e 44 -c 2 -a 0 -i 0 -k MAC 
- -t 1.036877450 -s 9 -d -1 -p RTS -e 44 -c 2 -a 0 -i 0 -k MAC
h -t 1.036877450 -s 9 -d -1 -p RTS -e 44 -c 2 -a 0 -i 0 -k MAC
r -t 1.037230137 -s 0 -d -1 -p RTS -e 44 -c 2 -a 0 -i 0 -k MAC
+ -t 1.037240137 -s 0 -d -1 -p CTS -e 38 -c 2 -a 0 -i 0 -k MAC 
- -t 1.037240137 -s 0 -d -1 -p CTS -e 38 -c 2 -a 0 -i 0 -k MAC
h -t 1.037240137 -s 0 -d -1 -p CTS -e 38 -c 2 -a 0 -i 0 -k MAC
r -t 1.037544824 -s 9 -d -1 -p CTS -e 38 -c 2 -a 0 -i 0 -k MAC
+ -t 1.037554824 -s 9 -d 0 -p ack -e 134 -c 2 -a 0 -i 11 -k MAC 
- -t 1.037554824 -s 9 -d 0 -p ack -e 134 -c 2 -a 0 -i 11 -k MAC
h -t 1.037554824 -s 9 -d 0 -p ack -e 134 -c 2 -a 0 -i 11 -k MAC
r -t 1.038627511 -s 0 -d 0 -p ack -e 76 -c 2 -a 0 -i 11 -k MAC
+ -t 1.038637511 -s 0 -d -1 -p ACK -e 38 -c 2 -a 0 -i 0 -k MAC 
- -t 1.038637511 -s 0 -d -1 -p ACK -e 38 -c 2 -a 0 -i 0 -k MAC
h -t 1.038637511 -s 0 -d -1 -p ACK -e 38 -c 2 -a 0 -i 0 -k MAC
r -t 1.038652511 -s 0 -d 0 -p ack -e 40 -c 2 -a 0 -i 11 -k AGT
+ -t 1.038652511 -s 0 -d -1 -p tcp -e 1540 -c 2 -a 0 -i 12 -k AGT 
- -t 1.038652511 -s 0 -d -1 -p tcp -e 1540 -c 2 -a 0 -i 12 -k AGT
h -t 1.038652511 -s 0 -d -1 -p tcp -e 1540 -c 2 -a 0 -i 12 -k AGT
+ -t 1.038652511 -s 0 -d -1 -p tcp -e 1540 -c 2 -a 0 -i 13 -k AGT 
- -t 1.038652511 -s 0 -d -1 -p tcp -e 1540 -c 2 -a 0 -i 13 -k AGT
h -t 1.038652511 -s 0 -d -1 -p tcp -e 1540 -c 2 -a 0 -i 13 -k AGT
+ -t 1.038652511 -s 0 -d 9 -p tcp -e 1560 -c 2 -a 0 -i 12 -k RTR 
- -t 1.038652511 -s 0 -d 9 -p tcp -e 1560 -c 2 -a 0 -i 12 -k RTR
h -t 1.038652511 -s 0 -d 9 -p tcp -e 1560 -c 2 -a 0 -i 12 -k RTR
+ -t 1.038652511 -s 0 -d 9 -p tcp -e 1560 -c 2 -a 0 -i 13 -k RTR 
- -t 1.038652511 -s 0 -d 9 -p tcp -e 1560 -c 2 -a 0 -i 13 -k RTR
h -t 1.038652511 -s 0 -d 9 -p tcp -e 1560 -c 2 -a 0 -i 13 -k RTR
r -t 1.038942199 -s 9 -d -1 -p ACK -e 38 -c 2 -a 0 -i 0 -k MAC
+ -t 1.039091678 -s 5 -d -1 -p RTS -e 44 -c 2 -a 0 -i 0 -k MAC 
- -t 1.039091678 -s 5 -d -1 -p RTS -e 44 -c 2 -a 0 -i 0 -k MAC
h -t 1.039091678 -s 5 -d -1 -p RTS -e 44 -c 2 -a 0 -i 0 -k MAC
r -t 1.039444365 -s 4 -d -1 -p RTS -e 44 -c 2 -a 0 -i 0 -k MAC
+ -t 1.039454365 -s 4 -d -1 -p CTS -e 38 -c 2 -a 0 -i 0 -k MAC 
- -t 1.039454365 -s 4 -d -1 -p CTS -e 38 -c 2 -a 0 -i 0 -k MAC
h -t 1.039454365 -s 4 -d -1 -p CTS -e 38 -c 2 -a 0 -i 0 -k MAC
r -t 1.039759052 -s 5 -d -1 -p CTS -e 38 -c 2 -a 0 -i 0 -k MAC
+ -t 1.039769052 -s 5 -d -1 -p ARP -e 86 -c 2 -a 0 -i 0 -k MAC 
- -t 1.039769052 -s 5 -d -1 -p ARP -e 86 -c 2 -a 0 -i 0 -k MAC
h -t 1.039769052 -s 5 -d -1 -p ARP -e 86 -c 2 -a 0 -i 0 -k MAC
r -t 1.040457740 -s 4 -d -1 -p ARP -e 28 -c 2 -a 0 -i 0 -k MAC
+ -t 1.040467740 -s 4 -d -1 -p ACK -e 38 -c 2 -a 0 -i 0 -k MAC 
- -t 1.040467740 -s 4 -d -1 -p ACK -e 38 -c 2 -a 0 -i 0 -k MAC
h -t 1.040467740 -s 4 -d -1 -p ACK -e 38 -c 2 -a 0 -i 0 -k MAC
r -t 1.040772427 -s 5 -d -1 -p ACK -e 38 -c 2 -a 0 -i 0 -k MAC
+ -t 1.040861740 -s 4 -d -1 -p RTS -e 44 -c 2 -a 0 -i 0 -k MAC 
- -t 1.040861740 -s 4 -d -1 -p RTS -e 44 -c 2 -a 0 -i 0 -k MAC
h -t 1.040861740 -s 4 -d -1 -p RTS -e 44 -c 2 -a 0 -i 0 -k MAC
r -t 1.041214427 -s 5 -d -1 -p RTS -e 44 -c 2 -a 0 -i 0 -k MAC
+ -t 1.041224427 -s 5 -d -1 -p CTS -e 38 -c 2 -a 0 -i 0 -k MAC 
- -t 1.041224427 -s 5 -d -1 -p CTS -e 38 -c 2 -a 0 -i 0 -k MAC
h -t 1.041224427 -s 5 -d -1 -p CTS -e 38 -c 2 -a 0 -i 0 -k MAC
r -t 1.041529114 -s 4 -d -1 -p CTS -e 38 -c 2 -a 0 -i 0 -k MAC
+ -t 1.041539114 -s 4 -d 5 -p DSR -e 102 -c 2 -a 0 -i 6 -k MAC 
- -t 1.041539114 -s 4 -d 5 -p DSR -e 102 -c 2 -a 0 -i 6 -k MAC
h -t 1.041539114 -s 4 -d 5 -p DSR -e 102 -c 2 -a 0 -i 6 -k MAC
r -t 1.042355801 -s 5 -d 5 -p DSR -e 44 -c 2 -a 0 -i 6 -k MAC
+ -t 1.042365801 -s 5 -d -1 -p ACK -e 38 -c 2 -a 0 -i 0 -k MAC 
- -t 1.042365801 -s 5 -d -1 -p ACK -e 38 -c 2 -a 0 -i 0 -k MAC
h -t 1.042365801 -s 5 -d -1 -p ACK -e 38 -c 2 -a 0 -i 0 -k MAC
+ -t 1.042380801 -s 5 -d 4 -p tcp -e 76 -c 2 -a 0 -i 2 -k RTR 
- -t 1.042380801 -s 5 -d 4 -p tcp -e 76 -c 2 -a 0 -i 2 -k RTR
h -t 1.042380801 -s 5 -d 4 -p tcp -e 76 -c 2 -a 0 -i 2 -k RTR
r -t 1.042670488 -s 4 -d -1 -p ACK -e 38 -c 2 -a 0 -i 0 -k MAC
+ -t 1.042799968 -s 0 -d -1 -p RTS -e 44 -c 2 -a 0 -i 0 -k MAC 
- -t 1.042799968 -s 0 -d -1 -p RTS -e 44 -c 2 -a 0 -i 0 -k MAC
h -t 1.042799968 -s 0 -d -1 -p RTS -e 44 -c 2 -a 0 -i 0 -k MAC
r -t 1.043152655 -s 9 -d -1 -p RTS -e 44 -c 2 -a 0 -i 0 -k MAC
+ -t 1.043162655 -s 9 -d -1 -p CTS -e 38 -c 2 -a 0 -i 0 -k MAC 
- -t 1.043162655 -s 9 -d -1 -p CTS -e 38 -c 2 -a 0 -i 0 -k MAC
h -t 1.043162655 -s 9 -d -1 -p CTS -e 38 -c 2 -a 0 -i 0 -k MAC
r -t 1.043467342 -s 0 -d -1 -p CTS -e 38 -c 2 -a 0 -i 0 -k MAC
+ -t 1.043477342 -s 0 -d 9 -p tcp -e 1634 -c 2 -a 0 -i 10 -k MAC 
- -t 1.043477342 -s 0 -d 9 -p tcp -e 1634 -c 2 -a 0 -i 10 -k MAC
h -t 1.043477342 -s 0 -d 9 -p tcp -e 1634 -c 2 -a 0 -i 10 -k MAC
r -t 1.056550029 -s 9 -d 9 -p tcp -e 1576 -c 2 -a 0 -i 10 -k MAC
+ -t 1.056560029 -s 9 -d -1 -p ACK -e 38 -c 2 -a 0 -i 0 -k MAC 
- -t 1.056560029 -s 9 -d -1 -p ACK -e 38 -c 2 -a 0 -i 0 -k MAC
h -t 1.056560029 -s 9 -d -1 -p ACK -e 38 -c 2 -a 0 -i 0 -k MAC
r -t 1.056575029 -s 9 -d 9 -p tcp -e 1540 -c 2 -a 0 -i 10 -k AGT
+ -t 1.056575029 -s 9 -d -1 -p ack -e 40 -c 2 -a 0 -i 14 -k AGT 
- -t 1.056575029 -s 9 -d -1 -p ack -e 40 -c 2 -a 0 -i 14 -k AGT
h -t 1.056575029 -s 9 -d -1 -p ack -e 40 -c 2 -a 0 -i 14 -k AGT
+ -t 1.056575029 -s 9 -d 0 -p ack -e 76 -c 2 -a 0 -i 14 -k RTR 
- -t 1.056575029 -s 9 -d 0 -p ack -e 76 -c 2 -a 0 -i 14 -k RTR
h -t 1.056575029 -s 9 -d 0 -p ack -e 76 -c 2 -a 0 -i 14 -k RTR
r -t 1.056864717 -s 0 -d -1 -p ACK -e 38 -c 2 -a 0 -i 0 -k MAC
+ -t 1.056934696 -s 5 -d -1 -p RTS -e 44 -c 2 -a 0 -i 0 -k MAC 
- -t 1.056934696 -s 5 -d -1 -p RTS -e 44 -c 2 -a 0 -i 0 -k MAC
h -t 1.056934696 -s 5 -d -1 -p RTS -e 44 -c 2 -a 0 -i 0 -k MAC
r -t 1.057287383 -s 4 -d -1 -p RTS -e 44 -c 2 -a 0 -i 0 -k MAC
+ -t 1.057297383 -s 4 -d -1 -p CTS -e 38 -c 2 -a 0 -i 0 -k MAC 
- -t 1.057297383 -s 4 -d -1 -p CTS -e 38 -c 2 -a 0 -i 0 -k MAC
h -t 1.057297383 -s 4 -d -1 -p CTS -e 38 -c 2 -a 0 -i 0 -k MAC
r -t 1.057602070 -s 5 -d -1 -p CTS -e 38 -c 2 -a 0 -i 0 -k MAC
+ -t 1.057612070 -s 5 -d 4 -p tcp -e 134 -c 2 -a 0 -i 2 -k MAC 
- -t 1.057612070 -s 5 -d 4 -p tcp -e 134 -c 2 -a 0 -i 2 -k MAC
h -t 1.057612070 -s 5 -d 4 -p tcp -e 134 -c 2 -a 0 -i 2 -k MAC
r -t 1.058684758 -s 4 -d 4 -p tcp -e 76 -c 2 -a 0 -i 2 -k MAC
+ -t 1.058694758 -s 4 -d -1 -p ACK -e 38 -c 2 -a 0 -i 0 -k MAC 
- -t 1.058694758 -s 4 -d -1 -p ACK -e 38 -c 2 -a 0 -i 0 -k MAC
h -t 1.058694758 -s 4 -d -1 -p ACK -e 38 -c 2 -a 0 -i 0 -k MAC
r -t 1.058709758 -s 4 -d 4 -p tcp -e 40 -c 2 -a 0 -i 2 -k AGT
+ -t 1.058709758 -s 4 -d -1 -p ack -e 40 -c 2 -a 0 -i 15 -k AGT 
- -t 1.058709758 -s 4 -d -1 -p ack -e 40 -c 2 -a 0 -i 15 -k AGT
h -t 1.058709758 -s 4 -d -1 -p ack -e 40 -c 2 -a 0 -i 15 -k AGT
+ -t 1.058709758 -s 4 -d 5 -p ack -e 76 -c 2 -a 0 -i 15 -k RTR 
- -t 1.058709758 -s 4 -d 5 -p ack -e 76 -c 2 -a 0 -i 15 -k RTR
h -t 1.058709758 -s 4 -d 5 -p ack -e 76 -c 2 -a 0 -i 15 -k RTR
r -t 1.058999445 -s 5 -d -1 -p ACK -e 38 -c 2 -a 0 -i 0 -k MAC
+ -t 1.059088758 -s 4 -d -1 -p RTS -e 44 -c 2 -a 0 -i 0 -k MAC 
- -t 1.059088758 -s 4 -d -1 -p RTS -e 44 -c 2 -a 0 -i 0 -k MAC
h -t 1.059088758 -s 4 -d -1 -p RTS -e 44 -c 2 -a 0 -i 0 -k MAC
r -t 1.059441445 -s 5 -d -1 -p RTS -e 44 -c 2 -a 0 -i 0 -k MAC
+ -t 1.059451445 -s 5 -d -1 -p CTS -e 38 -c 2 -a 0 -i 0 -k MAC 
- -t 1.059451445 -s 5 -d -1 -p CTS -e 38 -c 2 -a 0 -i 0 -k MAC
h -t 1.059451445 -s 5 -d -1 -p CTS -e 38 -c 2 -a 0 -i 0 -k MAC
r -t 1.059756132 -s 4 -d -1 -p CTS -e 38 -c 2 -a 0 -i 0 -k MAC
+ -t 1.059766132 -s 4 -d 5 -p ack -e 134 -c 2 -a 0 -i 15 -k MAC 
- -t 1.059766132 -s 4 -d 5 -p ack -e 134 -c 2 -a 0 -i 15 -k MAC
h -t 1.059766132 -s 4 -d 5 -p ack -e 134 -c 2 -a 0 -i 15 -k MAC
r -t 1.060838819 -s 5 -d 5 -p ack -e 76 -c 2 -a 0 -i 15 -k MAC
+ -t 1.060848819 -s 5 -d -1 -p ACK -e 38 -c 2 -a 0 -i 0 -k MAC 
- -t 1.060848819 -s 5 -d -1 -p ACK -e 38 -c 2 -a 0 -i 0 -k MAC
h -t 1.060848819 -s 5 -d -1 -p ACK -e 38 -c 2 -a 0 -i 0 -k MAC
r -t 1.060863819 -s 5 -d 5 -p ack -e 40 -c 2 -a 0 -i 15 -k AGT
+ -t 1.060863819 -s 5 -d -1 -p tcp -e 1540 -c 2 -a 0 -i 16 -k AGT 
- -t 1.060863819 -s 5 -d -1 -p tcp -e 1540 -c 2 -a 0 -i 16 -k AGT
h -t 1.060863819 -s 5 -d -1 -p tcp -e 1540 -c 2 -a 0 -i 16 -k AGT
+ -t 1.060863819 -s 5 -d -1 -p tcp -e 1540 -c 2 -a 0 -i 17 -k AGT 
- -t 1.060863819 -s 5 -d -1 -p tcp -e 1540 -c 2 -a 0 -i 17 -k AGT
h -t 1.060863819 -s 5 -d -1 -p tcp -e 1540 -c 2 -a 0 -i 17 -k AGT
+ -t 1.060863819 -s 5 -d 4 -p tcp -e 1576 -c 2 -a 0 -i 16 -k RTR 
- -t 1.060863819 -s 5 -d 4 -p tcp -e 1576 -c 2 -a 0 -i 16 -k RTR
h -t 1.060863819 -s 5 -d 4 -p tcp -e 1576 -c 2 -a 0 -i 16 -k RTR
+ -t 1.060863819 -s 5 -d 4 -p tcp -e 1576 -c 2 -a 0 -i 17 -k RTR 
- -t 1.060863819 -s 5 -d 4 -p tcp -e 1576 -c 2 -a 0 -i 17 -k RTR
h -t 1.060863819 -s 5 -d 4 -p tcp -e 1576 -c 2 -a 0 -i 17 -k RTR
r -t 1.061153506 -s 4 -d -1 -p ACK -e 38 -c 2 -a 0 -i 0 -k MAC
+ -t 1.061383486 -s 9 -d -1 -p RTS -e 44 -c 2 -a 0 -i 0 -k MAC 
- -t 1.061383486 -s 9 -d -1 -p RTS -e 44 -c 2 -a 0 -i 0 -k MAC
h -t 1.061383486 -s 9 -d -1 -p RTS -e 44 -c 2 -a 0 -i 0 -k MAC
r -t 1.061736173 -s 0 -d -1 -p RTS -e 44 -c 2 -a 0 -i 0 -k MAC
+ -t 1.061746173 -s 0 -d -1 -p CTS -e 38 -c 2 -a 0 -i 0 -k MAC 
- -t 1.061746173 -s 0 -d -1 -p CTS -e 38 -c 2 -a 0 -i 0 -k MAC
h -t 1.061746173 -s 0 -d -1 -p CTS -e 38 -c 2 -a 0 -i 0 -k MAC
r -t 1.062050860 -s 9 -d -1 -p CTS -e 38 -c 2 -a 0 -i 0 -k MAC
+ -t 1.062060860 -s 9 -d 0 -p ack -e 134 -c 2 -a 0 -i 14 -k MAC 
- -t 1.062060860 -s 9 -d 0 -p ack -e 134 -c 2 -a 0 -i 14 -k MAC
h -t 1.062060860 -s 9 -d 0 -p ack -e 134 -c 2 -a 0 -i 14 -k MAC
r -t 1.063133547 -s 0 -d 0 -p ack -e 76 -c 2 -a 0 -i 14 -k MAC
+ -t 1.063143547 -s 0 -d -1 -p ACK -e 38 -c 2 -a 0 -i 0 -k MAC 
- -t 1.063143547 -s 0 -d -1 -p ACK -e 38 -c 2 -a 0 -i 0 -k MAC
h -t 1.063143547 -s 0 -d -1 -p ACK -e 38 -c 2 -a 0 -i 0 -k MAC
r -t 1.063158547 -s 0 -d 0 -p ack -e 40 -c 2 -a 0 -i 14 -k AGT
+ -t 1.063158547 -s 0 -d -1 -p tcp -e 1540 -c 2 -a 0 -i 18 -k AGT 
- -t 1.063158547 -s 0 -d -1 -p tcp -e 1540 -c 2 -a 0 -i 18 -k AGT
h -t 1.063158547 -s 0 -d -1 -p tcp -e 1540 -c 2 -a 0 -i 18 -k AGT
+ -t 1.063158547 -s 0 -d -1 -p tcp -e 1540 -c 2 -a 0 -i 19 -k AGT 
- -t 1.063158547 -s 0 -d -1 -p tcp -e 1540 -c 2 -a 0 -i 19 -k AGT
h -t 1.063158547 -s 0 -d -1 -p tcp -e 1540 -c 2 -a 0 -i 19 -k AGT
+ -t 1.063158547 -s 0 -d 9 -p tcp -e 1560 -c 2 -a 0 -i 18 -k RTR 
- -t 1.063158547 -s 0 -d 9 -p tcp -e 1560 -c 2 -a 0 -i 18 -k RTR
h -t 1.063158547 -s 0 -d 9 -p tcp -e 1560 -c 2 -a 0 -i 18 -k RTR
+ -t 1.063158547 -s 0 -d 9 -p tcp -e 1560 -c 2 -a 0 -i 19 -k RTR 
- -t 1.063158547 -s 0 -d 9 -p tcp -e 1560 -c 2 -a 0 -i 19 -k RTR
h -t 1.063158547 -s 0 -d 9 -p tcp -e 1560 -c 2 -a 0 -i 19 -k RTR
r -t 1.063448235 -s 9 -d -1 -p ACK -e 38 -c 2 -a 0 -i 0 -k MAC
+ -t 1.063637714 -s 5 -d -1 -p RTS -e 44 -c 2 -a 0 -i 0 -k MAC 
- -t 1.063637714 -s 5 -d -1 -p RTS -e 44 -c 2 -a 0 -i 0 -k MAC
h -t 1.063637714 -s 5 -d -1 -p RTS -e 44 -c 2 -a 0 -i 0 -k MAC
r -t 1.063990401 -s 4 -d -1 -p RTS -e 44 -c 2 -a 0 -i 0 -k MAC
+ -t 1.064000401 -s 4 -d -1 -p CTS -e 38 -c 2 -a 0 -i 0 -k MAC 
- -t 1.064000401 -s 4 -d -1 -p CTS -e 38 -c 2 -a 0 -i 0 -k MAC
h -t 1.064000401 -s 4 -d -1 -p CTS -e 38 -c 2 -a 0 -i 0 -k MAC
r -t 1.064305088 -s 5 -d -1 -p CTS -e 38 -c 2 -a 0 -i 0 -k MAC
+ -t 1.064315088 -s 5 -d 4 -p tcp -e 1634 -c 2 -a 0 -i 16 -k MAC 
- -t 1.064315088 -s 5 -d 4 -p tcp -e 1634 -c 2 -a 0 -i 16 -k MAC
h -t 1.064315088 -s 5 -d 4 -p tcp -e 1634 -c 2 -a 0 -i 16 -k MAC
r -t 1.077387776 -s 4 -d 4 -p tcp -e 1576 -c 2 -a 0 -i 16 -k MAC
+ -t 1.077397776 -s 4 -d -1 -p ACK -e 38 -c 2 -a 0 -i 0 -k MAC 
- -t 1.077397776 -s 4 -d -1 -p ACK -e 38 -c 2 -a 0 -i 0 -k MAC
h -t 1.077397776 -s 4 -d -1 -p ACK -e 38 -c 2 -a 0 -i 0 -k MAC
r -t 1.077412776 -s 4 -d 4 -p tcp -e 1540 -c 2 -a 0 -i 16 -k AGT
+ -t 1.077412776 -s 4 -d -1 -p ack -e 40 -c 2 -a 0 -i 20 -k AGT 
- -t 1.077412776 -s 4 -d -1 -p ack -e 40 -c 2 -a 0 -i 20 -k AGT
h -t 1.077412776 -s 4 -d -1 -p ack -e 40 -c 2 -a 0 -i 20 -k AGT
+ -t 1.077412776 -s 4 -d 5 -p ack -e 76 -c 2 -a 0 -i 20 -k RTR 
- -t 1.077412776 -s 4 -d 5 -p ack -e 76 -c 2 -a 0 -i 20 -k RTR
h -t 1.077412776 -s 4 -d 5 -p ack -e 76 -c 2 -a 0 -i 20 -k RTR
r -t 1.077702463 -s 5 -d -1 -p ACK -e 38 -c 2 -a 0 -i 0 -k MAC
+ -t 1.077811776 -s 4 -d -1 -p RTS -e 44 -c 2 -a 0 -i 0 -k MAC 
- -t 1.077811776 -s 4 -d -1 -p RTS -e 44 -c 2 -a 0 -i 0 -k MAC
h -t 1.077811776 -s 4 -d -1 -p RTS -e 44 -c 2 -a 0 -i 0 -k MAC
r -t 1.078164463 -s 5 -d -1 -p RTS -e 44 -c 2 -a 0 -i 0 -k MAC
+ -t 1.078174463 -s 5 -d -1 -p CTS -e 38 -c 2 -a 0 -i 0 -k MAC 
- -t 1.078174463 -s 5 -d -1 -p CTS -e 38 -c 2 -a 0 -i 0 -k MAC
h -t 1.078174463 -s 5 -d -1 -p CTS -e 38 -c 2 -a 0 -i 0 -k MAC
r -t 1.078479150 -s 4 -d -1 -p CTS -e 38 -c 2 -a 0 -i 0 -k MAC
+ -t 1.078489150 -s 4 -d 5 -p ack -e 134 -c 2 -a 0 -i 20 -k MAC 
- -t 1.078489150 -s 4 -d 5 -p ack -e 134 -c 2 -a 0 -i 20 -k MAC
h -t 1.078489150 -s 4 -d 5 -p ack -e 134 -c 2 -a 0 -i 20 -k MAC
r -t 1.079561837 -s 5 -d 5 -p ack -e 76 -c 2 -a 0 -i 20 -k MAC
+ -t 1.079571837 -s 5 -d -1 -p ACK -e 38 -c 2 -a 0 -i 0 -k MAC 
- -t 1.079571837 -s 5 -d -1 -p ACK -e 38 -c 2 -a 0 -i 0 -k MAC
h -t 1.079571837 -s 5 -d -1 -p ACK -e 38 -c 2 -a 0 -i 0 -k MAC
r -t 1.079586837 -s 5 -d 5 -p ack -e 40 -c 2 -a 0 -i 20 -k AGT
+ -t 1.079586837 -s 5 -d -1 -p tcp -e 1540 -c 2 -a 0 -i 21 -k AGT 
- -t 1.079586837 -s 5 -d -1 -p tcp -e 1540 -c 2 -a 0 -i 21 -k AGT
h -t 1.079586837 -s 5 -d -1 -p tcp -e 1540 -c 2 -a 0 -i 21 -k AGT
+ -t 1.079586837 -s 5 -d -1 -p tcp -e 1540 -c 2 -a 0 -i 22 -k AGT 
- -t 1.079586837 -s 5 -d -1 -p tcp -e 1540 -c 2 -a 0 -i 22 -k AGT
h -t 1.079586837 -s 5 -d -1 -p tcp -e 1540 -c 2 -a 0 -i 22 -k AGT
+ -t 1.079586837 -s 5 -d 4 -p tcp -e 1560 -c 2 -a 0 -i 21 -k RTR 
- -t 1.079586837 -s 5 -d 4 -p tcp -e 1560 -c 2 -a 0 -i 21 -k RTR
h -t 1.079586837 -s 5 -d 4 -p tcp -e 1560 -c 2 -a 0 -i 21 -k RTR
+ -t 1.079586837 -s 5 -d 4 -p tcp -e 1560 -c 2 -a 0 -i 22 -k RTR 
- -t 1.079586837 -s 5 -d 4 -p tcp -e 1560 -c 2 -a 0 -i 22 -k RTR
h -t 1.079586837 -s 5 -d 4 -p tcp -e 1560 -c 2 -a 0 -i 22 -k RTR
r -t 1.079876524 -s 4 -d -1 -p ACK -e 38 -c 2 -a 0 -i 0 -k MAC
+ -t 1.080086004 -s 0 -d -1 -p RTS -e 44 -c 2 -a 0 -i 0 -k MAC 
- -t 1.080086004 -s 0 -d -1 -p RTS -e 44 -c 2 -a 0 -i 0 -k MAC
h -t 1.080086004 -s 0 -d -1 -p RTS -e 44 -c 2 -a 0 -i 0 -k MAC
r -t 1.080438691 -s 9 -d -1 -p RTS -e 44 -c 2 -a 0 -i 0 -k MAC
+ -t 1.080448691 -s 9 -d -1 -p CTS -e 38 -c 2 -a 0 -i 0 -k MAC 
- -t 1.080448691 -s 9 -d -1 -p CTS -e 38 -c 2 -a 0 -i 0 -k MAC
h -t 1.080448691 -s 9 -d -1 -p CTS -e 38 -c 2 -a 0 -i 0 -k MAC
r -t 1.080753378 -s 0 -d -1 -p CTS -e 38 -c 2 -a 0 -i 0 -k MAC
+ -t 1.080763378 -s 0 -d 9 -p tcp -e 1618 -c 2 -a 0 -i 12 -k MAC 
- -t 1.080763378 -s 0 -d 9 -p tcp -e 1618 -c 2 -a 0 -i 12 -k MAC
h -t 1.080763378 -s 0 -d 9 -p tcp -e 1618 -c 2 -a 0 -i 12 -k MAC
r -t 1.093708065 -s 9 -d 9 -p tcp -e 1560 -c 2 -a 0 -i 12 -k MAC
+ -t 1.093718065 -s 9 -d -1 -p ACK -e 38 -c 2 -a 0 -i 0 -k MAC 
- -t 1.093718065 -s 9 -d -1 -p ACK -e 38 -c 2 -a 0 -i 0 -k MAC
h -t 1.093718065 -s 9 -d -1 -p ACK -e 38 -c 2 -a 0 -i 0 -k MAC
r -t 1.093733065 -s 9 -d 9 -p tcp -e 1540 -c 2 -a 0 -i 12 -k AGT
+ -t 1.093733065 -s 9 -d -1 -p ack -e 40 -c 2 -a 0 -i 23 -k AGT 
- -t 1.093733065 -s 9 -d -1 -p ack -e 40 -c 2 -a 0 -i 23 -k AGT
h -t 1.093733065 -s 9 -d -1 -p ack -e 40 -c 2 -a 0 -i 23 -k AGT
+ -t 1.093733065 -s 9 -d 0 -p ack -e 60 -c 2 -a 0 -i 23 -k RTR 
- -t 1.093733065 -s 9 -d 0 -p ack -e 60 -c 2 -a 0 -i 23 -k RTR
h -t 1.093733065 -s 9 -d 0 -p ack -e 60 -c 2 -a 0 -i 23 -k RTR
r -t 1.094022753 -s 0 -d -1 -p ACK -e 38 -c 2 -a 0 -i 0 -k MAC
+ -t 1.094152065 -s 9 -d -1 -p RTS -e 44 -c 2 -a 0 -i 0 -k MAC 
- -t 1.094152065 -s 9 -d -1 -p RTS -e 44 -c 2 -a 0 -i 0 -k MAC
h -t 1.094152065 -s 9 -d -1 -p RTS -e 44 -c 2 -a 0 -i 0 -k MAC
r -t 1.094504753 -s 0 -d -1 -p RTS -e 44 -c 2 -a 0 -i 0 -k MAC
+ -t 1.094514753 -s 0 -d -1 -p CTS -e 38 -c 2 -a 0 -i 0 -k MAC 
- -t 1.094514753 -s 0 -d -1 -p CTS -e 38 -c 2 -a 0 -i 0 -k MAC
h -t 1.094514753 -s 0 -d -1 -p CTS -e 38 -c 2 -a 0 -i 0 -k MAC
r -t 1.094819440 -s 9 -d -1 -p CTS -e 38 -c 2 -a 0 -i 0 -k MAC
+ -t 1.094829440 -s 9 -d 0 -p ack -e 118 -c 2 -a 0 -i 23 -k MAC 
- -t 1.094829440 -s 9 -d 0 -p ack -e 118 -c 2 -a 0 -i 23 -k MAC
h -t 1.094829440 -s 9 -d 0 -p ack -e 118 -c 2 -a 0 -i 23 -k MAC
r -t 1.095774127 -s 0 -d 0 -p ack -e 60 -c 2 -a 0 -i 23 -k MAC
+ -t 1.095784127 -s 0 -d -1 -p ACK -e 38 -c 2 -a 0 -i 0 -k MAC 
- -t 1.095784127 -s 0 -d -1 -p ACK -e 38 -c 2 -a 0 -i 0 -k MAC
h -t 1.095784127 -s 0 -d -1 -p ACK -e 38 -c 2 -a 0 -i 0 -k MAC
r -t 1.095799127 -s 0 -d 0 -p ack -e 40 -c 2 -a 0 -i 23 -k AGT
+ -t 1.095799127 -s 0 -d -1 -p tcp -e 1540 -c 2 -a 0 -i 24 -k AGT 
- -t 1.095799127 -s 0 -d -1 -p tcp -e 1540 -c 2 -a 0 -i 24 -k AGT
h -t 1.095799127 -s 0 -d -1 -p tcp -e 1540 -c 2 -a 0 -i 24 -k AGT
+ -t 1.095799127 -s 0 -d -1 -p tcp -e 1540 -c 2 -a 0 -i 25 -k AGT 
- -t 1.095799127 -s 0 -d -1 -p tcp -e 1540 -c 2 -a 0 -i 25 -k AGT
h -t 1.095799127 -s 0 -d -1 -p tcp -e 1540 -c 2 -a 0 -i 25 -k AGT
+ -t 1.095799127 -s 0 -d 9 -p tcp -e 1560 -c 2 -a 0 -i 24 -k RTR 
- -t 1.095799127 -s 0 -d 9 -p tcp -e 1560 -c 2 -a 0 -i 24 -k RTR
h -t 1.095799127 -s 0 -d 9 -p tcp -e 1560 -c 2 -a 0 -i 24 -k RTR
+ -t 1.095799127 -s 0 -d 9 -p tcp -e 1560 -c 2 -a 0 -i 25 -k RTR 
- -t 1.095799127 -s 0 -d 9 -p tcp -e 1560 -c 2 -a 0 -i 25 -k RTR
h -t 1.095799127 -s 0 -d 9 -p tcp -e 1560 -c 2 -a 0 -i 25 -k RTR
r -t 1.096088814 -s 9 -d -1 -p ACK -e 38 -c 2 -a 0 -i 0 -k MAC
+ -t 1.096398294 -s 5 -d -1 -p RTS -e 44 -c 2 -a 0 -i 0 -k MAC 
- -t 1.096398294 -s 5 -d -1 -p RTS -e 44 -c 2 -a 0 -i 0 -k MAC
h -t 1.096398294 -s 5 -d -1 -p RTS -e 44 -c 2 -a 0 -i 0 -k MAC
r -t 1.096750981 -s 4 -d -1 -p RTS -e 44 -c 2 -a 0 -i 0 -k MAC
+ -t 1.096760981 -s 4 -d -1 -p CTS -e 38 -c 2 -a 0 -i 0 -k MAC 
- -t 1.096760981 -s 4 -d -1 -p CTS -e 38 -c 2 -a 0 -i 0 -k MAC
h -t 1.096760981 -s 4 -d -1 -p CTS -e 38 -c 2 -a 0 -i 0 -k MAC
r -t 1.097065668 -s 5 -d -1 -p CTS -e 38 -c 2 -a 0 -i 0 -k MAC
+ -t 1.097075668 -s 5 -d 4 -p tcp -e 1634 -c 2 -a 0 -i 17 -k MAC 
- -t 1.097075668 -s 5 -d 4 -p tcp -e 1634 -c 2 -a 0 -i 17 -k MAC
h -t 1.097075668 -s 5 -d 4 -p tcp -e 1634 -c 2 -a 0 -i 17 -k MAC