Sconfig 0.00000 tap: on snoop: rts? on errs? on
Sconfig 0.00000 salvage: on !bd replies? on
Sconfig 0.00000 grat error: on grat reply: on
Sconfig 0.00000 $reply for props: on ring 0 search: on
Sconfig 0.00000 using MOBICACHE
s -t 1.000000000 -Hs 0 -Hd -2 -Ni 0 -Nx 289.00 -Ny 394.00 -Nz 0.00 -Ne -1.000000 -Nl AGT -Nw --- -Ma 0 -Md 0 -Ms 0 -Mt 0 -Is 0.0 -Id 9.0 -It tcp -Il 40 -If 0 -Ii 0 -Iv 32 -Pn tcp -Ps 0 -Pa 0 -Pf 0 -Po 0 
r -t 1.000000000 -Hs 0 -Hd -2 -Ni 0 -Nx 289.00 -Ny 394.00 -Nz 0.00 -Ne -1.000000 -Nl RTR -Nw --- -Ma 0 -Md 0 -Ms 0 -Mt 0 -Is 0.0 -Id 9.0 -It tcp -Il 40 -If 0 -Ii 0 -Iv 32 -Pn tcp -Ps 0 -Pa 0 -Pf 0 -Po 0 
s -t 1.000000000 -Hs 5 -Hd -2 -Ni 5 -Nx 289.00 -Ny 344.00 -Nz 0.00 -Ne -1.000000 -Nl AGT -Nw --- -Ma 0 -Md 0 -Ms 0 -Mt 0 -Is 5.0 -Id 4.0 -It tcp -Il 40 -If 0 -Ii 2 -Iv 32 -Pn tcp -Ps 0 -Pa 0 -Pf 0 -Po 0 
r -t 1.000000000 -Hs 5 -Hd -2 -Ni 5 -Nx 289.00 -Ny 344.00 -Nz 0.00 -Ne -1.000000 -Nl RTR -Nw --- -Ma 0 -Md 0 -Ms 0 -Mt 0 -Is 5.0 -Id 4.0 -It tcp -Il 40 -If 0 -Ii 2 -Iv 32 -Pn tcp -Ps 0 -Pa 0 -Pf 0 -Po 0 
s -t 1.003738358 -Hs 0 -Hd -1 -Ni 0 -Nx 289.00 -Ny 394.00 -Nz 0.00 -Ne -1.000000 -Nl RTR -Nw --- -Ma 0 -Md 0 -Ms 0 -Mt 0 -Is 0.255 -Id 9.255 -It DSR -Il 32 -If 0 -Ii 1 -Iv 32 -P dsr -Ph 1 -Pq 1 -Ps 1 -Pp 0 -Pn 1 -Pl 0 -Pe 0->0 -Pw 0 -Pm 0 -Pc 0 -Pb 0->0 
s -t 1.003933358 -Hs 0 -Hd -1 -Ni 0 -Nx 289.00 -Ny 394.00 -Nz 0.00 -Ne -1.000000 -Nl MAC -Nw --- -Ma 0 -Md ffffffff -Ms 0 -Mt 800 -Is 0.255 -Id 9.255 -It DSR -Il 90 -If 0 -Ii 1 -Iv 32 -P dsr -Ph 1 -Pq 1 -Ps 1 -Pp 0 -Pn 1 -Pl 0 -Pe 0->0 -Pw 0 -Pm 0 -Pc 0 -Pb 0->0 
r -t 1.004653525 -Hs 5 -Hd -1 -Ni 5 -Nx 289.00 -Ny 344.00 -Nz 0.00 -Ne -1.000000 -Nl MAC -Nw --- -Ma 0 -Md ffffffff -Ms 0 -Mt 800 -Is 0.255 -Id 9.255 -It DSR -Il 32 -If 0 -Ii 1 -Iv 32 -P dsr -Ph 1 -Pq 1 -Ps 1 -Pp 0 -Pn 1 -Pl 0 -Pe 0->0 -Pw 0 -Pm 0 -Pc 0 -Pb 0->0 
r -t 1.004653525 -Hs 1 -Hd -1 -Ni 1 -Nx 339.00 -Ny 394.00 -Nz 0.00 -Ne -1.000000 -Nl MAC -Nw --- -Ma 0 -Md ffffffff -Ms 0 -Mt 800 -Is 0.255 -Id 9.255 -It DSR -Il 32 -If 0 -Ii 1 -Iv 32 -P dsr -Ph 1 -Pq 1 -Ps 1 -Pp 0 -Pn 1 -Pl 0 -Pe 0->0 -Pw 0 -Pm 0 -Pc 0 -Pb 0->0 
r -t 1.004653594 -Hs 6 -Hd -1 -Ni 6 -Nx 339.00 -Ny 344.00 -Nz 0.00 -Ne -1.000000 -Nl MAC -Nw --- -Ma 0 -Md ffffffff -Ms 0 -Mt 800 -Is 0.255 -Id 9.255 -It DSR -Il 32 -If 0 -Ii 1 -Iv 32 -P dsr -Ph 1 -Pq 1 -Ps 1 -Pp 0 -Pn 1 -Pl 0 -Pe 0->0 -Pw 0 -Pm 0 -Pc 0 -Pb 0->0 
r -t 1.004653691 -Hs 2 -Hd -1 -Ni 2 -Nx 389.00 -Ny 394.00 -Nz 0.00 -Ne -1.000000 -Nl MAC -Nw --- -Ma 0 -Md ffffffff -Ms 0 -Mt 800 -Is 0.255 -Id 9.255 -It DSR -Il 32 -If 0 -Ii 1 -Iv 32 -P dsr -Ph 1 -Pq 1 -Ps 1 -Pp 0 -Pn 1 -Pl 0 -Pe 0->0 -Pw 0 -Pm 0 -Pc 0 -Pb 0->0 
r -t 1.004653731 -Hs 7 -Hd -1 -Ni 7 -Nx 389.00 -Ny 344.00 -Nz 0.00 -Ne -1.000000 -Nl MAC -Nw --- -Ma 0 -Md ffffffff -Ms 0 -Mt 800 -Is 0.255 -Id 9.255 -It DSR -Il 32 -If 0 -Ii 1 -Iv 32 -P dsr -Ph 1 -Pq 1 -Ps 1 -Pp 0 -Pn 1 -Pl 0 -Pe 0->0 -Pw 0 -Pm 0 -Pc 0 -Pb 0->0 
r -t 1.004653858 -Hs 3 -Hd -1 -Ni 3 -Nx 439.00 -Ny 394.00 -Nz 0.00 -Ne -1.000000 -Nl MAC -Nw --- -Ma 0 -Md ffffffff -Ms 0 -Mt 800 -Is 0.255 -Id 9.255 -It DSR -Il 32 -If 0 -Ii 1 -Iv 32 -P dsr -Ph 1 -Pq 1 -Ps 1 -Pp 0 -Pn 1 -Pl 0 -Pe 0->0 -Pw 0 -Pm 0 -Pc 0 -Pb 0->0 
r -t 1.004653885 -Hs 8 -Hd -1 -Ni 8 -Nx 439.00 -Ny 344.00 -Nz 0.00 -Ne -1.000000 -Nl MAC -Nw --- -Ma 0 -Md ffffffff -Ms 0 -Mt 800 -Is 0.255 -Id 9.255 -It DSR -Il 32 -If 0 -Ii 1 -Iv 32 -P dsr -Ph 1 -Pq 1 -Ps 1 -Pp 0 -Pn 1 -Pl 0 -Pe 0->0 -Pw 0 -Pm 0 -Pc 0 -Pb 0->0 
r -t 1.004654025 -Hs 4 -Hd -1 -Ni 4 -Nx 489.00 -Ny 394.00 -Nz 0.00 -Ne -1.000000 -Nl MAC -Nw --- -Ma 0 -Md ffffffff -Ms 0 -Mt 800 -Is 0.255 -Id 9.255 -It DSR -Il 32 -If 0 -Ii 1 -Iv 32 -P dsr -Ph 1 -Pq 1 -Ps 1 -Pp 0 -Pn 1 -Pl 0 -Pe 0->0 -Pw 0 -Pm 0 -Pc 0 -Pb 0->0 
r -t 1.004654045 -Hs 9 -Hd -1 -Ni 9 -Nx 489.00 -Ny 344.00 -Nz 0.00 -Ne -1.000000 -Nl MAC -Nw --- -Ma 0 -Md ffffffff -Ms 0 -Mt 800 -Is 0.255 -Id 9.255 -It DSR -Il 32 -If 0 -Ii 1 -Iv 32 -P dsr -Ph 1 -Pq 1 -Ps 1 -Pp 0 -Pn 1 -Pl 0 -Pe 0->0 -Pw 0 -Pm 0 -Pc 0 -Pb 0->0 
r -t 1.004678525 -Hs 5 -Hd -1 -Ni 5 -Nx 289.00 -Ny 344.00 -Nz 0.00 -Ne -1.000000 -Nl RTR -Nw --- -Ma 0 -Md ffffffff -Ms 0 -Mt 800 -Is 0.255 -Id 9.255 -It DSR -Il 32 -If 0 -Ii 1 -Iv 32 -P dsr -Ph 1 -Pq 1 -Ps 1 -Pp 0 -Pn 1 -Pl 0 -Pe 0->0 -Pw 0 -Pm 0 -Pc 0 -Pb 0->0 
r -t 1.004678525 -Hs 1 -Hd -1 -Ni 1 -Nx 339.00 -Ny 394.00 -Nz 0.00 -Ne -1.000000 -Nl RTR -Nw --- -Ma 0 -Md ffffffff -Ms 0 -Mt 800 -Is 0.255 -Id 9.255 -It DSR -Il 32 -If 0 -Ii 1 -Iv 32 -P dsr -Ph 1 -Pq 1 -Ps 1 -Pp 0 -Pn 1 -Pl 0 -Pe 0->0 -Pw 0 -Pm 0 -Pc 0 -Pb 0->0 
r -t 1.004678594 -Hs 6 -Hd -1 -Ni 6 -Nx 339.00 -Ny 344.00 -Nz 0.00 -Ne -1.000000 -Nl RTR -Nw --- -Ma 0 -Md ffffffff -Ms 0 -Mt 800 -Is 0.255 -Id 9.255 -It DSR -Il 32 -If 0 -Ii 1 -Iv 32 -P dsr -Ph 1 -Pq 1 -Ps 1 -Pp 0 -Pn 1 -Pl 0 -Pe 0->0 -Pw 0 -Pm 0 -Pc 0 -Pb 0->0 
r -t 1.004678691 -Hs 2 -Hd -1 -Ni 2 -Nx 389.00 -Ny 394.00 -Nz 0.00 -Ne -1.000000 -Nl RTR -Nw --- -Ma 0 -Md ffffffff -Ms 0 -Mt 800 -Is 0.255 -Id 9.255 -It DSR -Il 32 -If 0 -Ii 1 -Iv 32 -P dsr -Ph 1 -Pq 1 -Ps 1 -Pp 0 -Pn 1 -Pl 0 -Pe 0->0 -Pw 0 -Pm 0 -Pc 0 -Pb 0->0 
r -t 1.004678731 -Hs 7 -Hd -1 -Ni 7 -Nx 389.00 -Ny 344.00 -Nz 0.00 -Ne -1.000000 -Nl RTR -Nw --- -Ma 0 -Md ffffffff -Ms 0 -Mt 800 -Is 0.255 -Id 9.255 -It DSR -Il 32 -If 0 -Ii 1 -Iv 32 -P dsr -Ph 1 -Pq 1 -Ps 1 -Pp 0 -Pn 1 -Pl 0 -Pe 0->0 -Pw 0 -Pm 0 -Pc 0 -Pb 0->0 
r -t 1.004678858 -Hs 3 -Hd -1 -Ni 3 -Nx 439.00 -Ny 394.00 -Nz 0.00 -Ne -1.000000 -Nl RTR -Nw --- -Ma 0 -Md ffffffff -Ms 0 -Mt 800 -Is 0.255 -Id 9.255 -It DSR -Il 32 -If 0 -Ii 1 -Iv 32 -P dsr -Ph 1 -Pq 1 -Ps 1 -Pp 0 -Pn 1 -Pl 0 -Pe 0->0 -Pw 0 -Pm 0 -Pc 0 -Pb 0->0 
r -t 1.004678885 -Hs 8 -Hd -1 -Ni 8 -Nx 439.00 -Ny 344.00 -Nz 0.00 -Ne -1.000000 -Nl RTR -Nw --- -Ma 0 -Md ffffffff -Ms 0 -Mt 800 -Is 0.255 -Id 9.255 -It DSR -Il 32 -If 0 -Ii 1 -Iv 32 -P dsr -Ph 1 -Pq 1 -Ps 1 -Pp 0 -Pn 1 -Pl 0 -Pe 0->0 -Pw 0 -Pm 0 -Pc 0 -Pb 0->0 
r -t 1.004679025 -Hs 4 -Hd -1 -Ni 4 -Nx 489.00 -Ny 394.00 -Nz 0.00 -Ne -1.000000 -Nl RTR -Nw --- -Ma 0 -Md ffffffff -Ms 0 -Mt 800 -Is 0.255 -Id 9.255 -It DSR -Il 32 -If 0 -Ii 1 -Iv 32 -P dsr -Ph 1 -Pq 1 -Ps 1 -Pp 0 -Pn 1 -Pl 0 -Pe 0->0 -Pw 0 -Pm 0 -Pc 0 -Pb 0->0 
r -t 1.004679045 -Hs 9 -Hd -1 -Ni 9 -Nx 489.00 -Ny 344.00 -Nz 0.00 -Ne -1.000000 -Nl RTR -Nw --- -Ma 0 -Md ffffffff -Ms 0 -Mt 800 -Is 0.255 -Id 9.255 -It DSR -Il 32 -If 0 -Ii 1 -Iv 32 -P dsr -Ph 1 -Pq 1 -Ps 1 -Pp 0 -Pn 1 -Pl 0 -Pe 0->0 -Pw 0 -Pm 0 -Pc 0 -Pb 0->0 
s -t 1.007769418 -Hs 5 -Hd -1 -Ni 5 -Nx 289.00 -Ny 344.00 -Nz 0.00 -Ne -1.000000 -Nl RTR -Nw --- -Ma 0 -Md 0 -Ms 0 -Mt 0 -Is 5.255 -Id 4.255 -It DSR -Il 32 -If 0 -Ii 3 -Iv 32 -P dsr -Ph 1 -Pq 1 -Ps 1 -Pp 0 -Pn 1 -Pl 0 -Pe 0->0 -Pw 0 -Pm 0 -Pc 0 -Pb 0->0 
s -t 1.008124418 -Hs 5 -Hd -1 -Ni 5 -Nx 289.00 -Ny 344.00 -Nz 0.00 -Ne -1.000000 -Nl MAC -Nw --- -Ma 0 -Md ffffffff -Ms 5 -Mt 800 -Is 5.255 -Id 4.255 -It DSR -Il 90 -If 0 -Ii 3 -Iv 32 -P dsr -Ph 1 -Pq 1 -Ps 1 -Pp 0 -Pn 1 -Pl 0 -Pe 0->0 -Pw 0 -Pm 0 -Pc 0 -Pb 0->0 
r -t 1.008844585 -Hs 0 -Hd -1 -Ni 0 -Nx 289.00 -Ny 394.00 -Nz 0.00 -Ne -1.000000 -Nl MAC -Nw --- -Ma 0 -Md ffffffff -Ms 5 -Mt 800 -Is 5.255 -Id 4.255 -It DSR -Il 32 -If 0 -Ii 3 -Iv 32 -P dsr -Ph 1 -Pq 1 -Ps 1 -Pp 0 -Pn 1 -Pl 0 -Pe 0->0 -Pw 0 -Pm 0 -Pc 0 -Pb 0->0 
r -t 1.008844585 -Hs 6 -Hd -1 -Ni 6 -Nx 339.00 -Ny 344.00 -Nz 0.00 -Ne -1.000000 -Nl MAC -Nw --- -Ma 0 -Md ffffffff -Ms 5 -Mt 800 -Is 5.255 -Id 4.255 -It DSR -Il 32 -If 0 -Ii 3 -Iv 32 -P dsr -Ph 1 -Pq 1 -Ps 1 -Pp 0 -Pn 1 -Pl 0 -Pe 0->0 -Pw 0 -Pm 0 -Pc 0 -Pb 0->0 
r -t 1.008844654 -Hs 1 -Hd -1 -Ni 1 -Nx 339.00 -Ny 394.00 -Nz 0.00 -Ne -1.000000 -Nl MAC -Nw --- -Ma 0 -Md ffffffff -Ms 5 -Mt 800 -Is 5.255 -Id 4.255 -It DSR -Il 32 -If 0 -Ii 3 -Iv 32 -P dsr -Ph 1 -Pq 1 -Ps 1 -Pp 0 -Pn 1 -Pl 0 -Pe 0->0 -Pw 0 -Pm 0 -Pc 0 -Pb 0->0 
r -t 1.008844751 -Hs 7 -Hd -1 -Ni 7 -Nx 389.00 -Ny 344.00 -Nz 0.00 -Ne -1.000000 -Nl MAC -Nw --- -Ma 0 -Md ffffffff -Ms 5 -Mt 800 -Is 5.255 -Id 4.255 -It DSR -Il 32 -If 0 -Ii 3 -Iv 32 -P dsr -Ph 1 -Pq 1 -Ps 1 -Pp 0 -Pn 1 -Pl 0 -Pe 0->0 -Pw 0 -Pm 0 -Pc 0 -Pb 0->0 
r -t 1.008844791 -Hs 2 -Hd -1 -Ni 2 -Nx 389.00 -Ny 394.00 -Nz 0.00 -Ne -1.000000 -Nl MAC -Nw --- -Ma 0 -Md ffffffff -Ms 5 -Mt 800 -Is 5.255 -Id 4.255 -It DSR -Il 32 -If 0 -Ii 3 -Iv 32 -P dsr -Ph 1 -Pq 1 -Ps 1 -Pp 0 -Pn 1 -Pl 0 -Pe 0->0 -Pw 0 -Pm 0 -Pc 0 -Pb 0->0 
r -t 1.008844918 -Hs 8 -Hd -1 -Ni 8 -Nx 439.00 -Ny 344.00 -Nz 0.00 -Ne -1.000000 -Nl MAC -Nw --- -Ma 0 -Md ffffffff -Ms 5 -Mt 800 -Is 5.255 -Id 4.255 -It DSR -Il 32 -If 0 -Ii 3 -Iv 32 -P dsr -Ph 1 -Pq 1 -Ps 1 -Pp 0 -Pn 1 -Pl 0 -Pe 0->0 -Pw 0 -Pm 0 -Pc 0 -Pb 0->0 
r -t 1.008844945 -Hs 3 -Hd -1 -Ni 3 -Nx 439.00 -Ny 394.00 -Nz 0.00 -Ne -1.000000 -Nl MAC -Nw --- -Ma 0 -Md ffffffff -Ms 5 -Mt 800 -Is 5.255 -Id 4.255 -It DSR -Il 32 -If 0 -Ii 3 -Iv 32 -P dsr -Ph 1 -Pq 1 -Ps 1 -Pp 0 -Pn 1 -Pl 0 -Pe 0->0 -Pw 0 -Pm 0 -Pc 0 -Pb 0->0 
r -t 1.008845085 -Hs 9 -Hd -1 -Ni 9 -Nx 489.00 -Ny 344.00 -Nz 0.00 -Ne -1.000000 -Nl MAC -Nw --- -Ma 0 -Md ffffffff -Ms 5 -Mt 800 -Is 5.255 -Id 4.255 -It DSR -Il 32 -If 0 -Ii 3 -Iv 32 -P dsr -Ph 1 -Pq 1 -Ps 1 -Pp 0 -Pn 1 -Pl 0 -Pe 0->0 -Pw 0 -Pm 0 -Pc 0 -Pb 0->0 
r -t 1.008845105 -Hs 4 -Hd -1 -Ni 4 -Nx 489.00 -Ny 394.00 -Nz 0.00 -Ne -1.000000 -Nl MAC -Nw --- -Ma 0 -Md ffffffff -Ms 5 -Mt 800 -Is 5.255 -Id 4.255 -It DSR -Il 32 -If 0 -Ii 3 -Iv 32 -P dsr -Ph 1 -Pq 1 -Ps 1 -Pp 0 -Pn 1 -Pl 0 -Pe 0->0 -Pw 0 -Pm 0 -Pc 0 -Pb 0->0 
r -t 1.008869585 -Hs 0 -Hd -1 -Ni 0 -Nx 289.00 -Ny 394.00 -Nz 0.00 -Ne -1.000000 -Nl RTR -Nw --- -Ma 0 -Md ffffffff -Ms 5 -Mt 800 -Is 5.255 -Id 4.255 -It DSR -Il 32 -If 0 -Ii 3 -Iv 32 -P dsr -Ph 1 -Pq 1 -Ps 1 -Pp 0 -Pn 1 -Pl 0 -Pe 0->0 -Pw 0 -Pm 0 -Pc 0 -Pb 0->0 
r -t 1.008869585 -Hs 6 -Hd -1 -Ni 6 -Nx 339.00 -Ny 344.00 -Nz 0.00 -Ne -1.000000 -Nl RTR -Nw --- -Ma 0 -Md ffffffff -Ms 5 -Mt 800 -Is 5.255 -Id 4.255 -It DSR -Il 32 -If 0 -Ii 3 -Iv 32 -P dsr -Ph 1 -Pq 1 -Ps 1 -Pp 0 -Pn 1 -Pl 0 -Pe 0->0 -Pw 0 -Pm 0 -Pc 0 -Pb 0->0 
r -t 1.008869654 -Hs 1 -Hd -1 -Ni 1 -Nx 339.00 -Ny 394.00 -Nz 0.00 -Ne -1.000000 -Nl RTR -Nw --- -Ma 0 -Md ffffffff -Ms 5 -Mt 800 -Is 5.255 -Id 4.255 -It DSR -Il 32 -If 0 -Ii 3 -Iv 32 -P dsr -Ph 1 -Pq 1 -Ps 1 -Pp 0 -Pn 1 -Pl 0 -Pe 0->0 -Pw 0 -Pm 0 -Pc 0 -Pb 0->0 
r -t 1.008869751 -Hs 7 -Hd -1 -Ni 7 -Nx 389.00 -Ny 344.00 -Nz 0.00 -Ne -1.000000 -Nl RTR -Nw --- -Ma 0 -Md ffffffff -Ms 5 -Mt 800 -Is 5.255 -Id 4.255 -It DSR -Il 32 -If 0 -Ii 3 -Iv 32 -P dsr -Ph 1 -Pq 1 -Ps 1 -Pp 0 -Pn 1 -Pl 0 -Pe 0->0 -Pw 0 -Pm 0 -Pc 0 -Pb 0->0 
r -t 1.008869791 -Hs 2 -Hd -1 -Ni 2 -Nx 389.00 -Ny 394.00 -Nz 0.00 -Ne -1.000000 -Nl RTR -Nw --- -Ma 0 -Md ffffffff -Ms 5 -Mt 800 -Is 5.255 -Id 4.255 -It DSR -Il 32 -If 0 -Ii 3 -Iv 32 -P dsr -Ph 1 -Pq 1 -Ps 1 -Pp 0 -Pn 1 -Pl 0 -Pe 0->0 -Pw 0 -Pm 0 -Pc 0 -Pb 0->0 
r -t 1.008869918 -Hs 8 -Hd -1 -Ni 8 -Nx 439.00 -Ny 344.00 -Nz 0.00 -Ne -1.000000 -Nl RTR -Nw --- -Ma 0 -Md ffffffff -Ms 5 -Mt 800 -Is 5.255 -Id 4.255 -It DSR -Il 32 -If 0 -Ii 3 -Iv 32 -P dsr -Ph 1 -Pq 1 -Ps 1 -Pp 0 -Pn 1 -Pl 0 -Pe 0->0 -Pw 0 -Pm 0 -Pc 0 -Pb 0->0 
r -t 1.008869945 -Hs 3 -Hd -1 -Ni 3 -Nx 439.00 -Ny 394.00 -Nz 0.00 -Ne -1.000000 -Nl RTR -Nw --- -Ma 0 -Md ffffffff -Ms 5 -Mt 800 -Is 5.255 -Id 4.255 -It DSR -Il 32 -If 0 -Ii 3 -Iv 32 -P dsr -Ph 1 -Pq 1 -Ps 1 -Pp 0 -Pn 1 -Pl 0 -Pe 0->0 -Pw 0 -Pm 0 -Pc 0 -Pb 0->0 
r -t 1.008870085 -Hs 9 -Hd -1 -Ni 9 -Nx 489.00 -Ny 344.00 -Nz 0.00 -Ne -1.000000 -Nl RTR -Nw --- -Ma 0 -Md ffffffff -Ms 5 -Mt 800 -Is 5.255 -Id 4.255 -It DSR -Il 32 -If 0 -Ii 3 -Iv 32 -P dsr -Ph 1 -Pq 1 -Ps 1 -Pp 0 -Pn 1 -Pl 0 -Pe 0->0 -Pw 0 -Pm 0 -Pc 0 -Pb 0->0 
r -t 1.008870105 -Hs 4 -Hd -1 -Ni 4 -Nx 489.00 -Ny 394.00 -Nz 0.00 -Ne -1.000000 -Nl RTR -Nw --- -Ma 0 -Md ffffffff -Ms 5 -Mt 800 -Is 5.255 -Id 4.255 -It DSR -Il 32 -If 0 -Ii 3 -Iv 32 -P dsr -Ph 1 -Pq 1 -Ps 1 -Pp 0 -Pn 1 -Pl 0 -Pe 0->0 -Pw 0 -Pm 0 -Pc 0 -Pb 0->0 
s -t 1.011690122 -Hs 9 -Hd 0 -Ni 9 -Nx 489.00 -Ny 344.00 -Nz 0.00 -Ne -1.000000 -Nl RTR -Nw --- -Ma 0 -Md 0 -Ms 0 -Mt 0 -Is 9.255 -Id 0.255 -It DSR -Il 44 -If 0 -Ii 4 -Iv 254 -P dsr -Ph 2 -Pq 0 -Ps 1 -Pp 1 -Pn 1 -Pl 2 -Pe 0->9 -Pw 0 -Pm 0 -Pc 0 -Pb 0->0 
s -t 1.012005122 -Hs 9 -Hd -2 -Ni 9 -Nx 489.00 -Ny 344.00 -Nz 0.00 -Ne -1.000000 -Nl MAC -Nw --- -Ma 0 -Md ffffffff -Ms 9 -Mt 806 -P arp -Po REQUEST -Pms 9 -Ps 9 -Pmd 0 -Pd 0 
r -t 1.012693288 -Hs 4 -Hd -2 -Ni 4 -Nx 489.00 -Ny 394.00 -Nz 0.00 -Ne -1.000000 -Nl MAC -Nw --- -Ma 0 -Md ffffffff -Ms 9 -Mt 806 -P arp -Po REQUEST -Pms 9 -Ps 9 -Pmd 0 -Pd 0 
r -t 1.012693288 -Hs 8 -Hd -2 -Ni 8 -Nx 439.00 -Ny 344.00 -Nz 0.00 -Ne -1.000000 -Nl MAC -Nw --- -Ma 0 -Md ffffffff -Ms 9 -Mt 806 -P arp -Po REQUEST -Pms 9 -Ps 9 -Pmd 0 -Pd 0 
r -t 1.012693357 -Hs 3 -Hd -2 -Ni 3 -Nx 439.00 -Ny 394.00 -Nz 0.00 -Ne -1.000000 -Nl MAC -Nw --- -Ma 0 -Md ffffffff -Ms 9 -Mt 806 -P arp -Po REQUEST -Pms 9 -Ps 9 -Pmd 0 -Pd 0 
r -t 1.012693455 -Hs 7 -Hd -2 -Ni 7 -Nx 389.00 -Ny 344.00 -Nz 0.00 -Ne -1.000000 -Nl MAC -Nw --- -Ma 0 -Md ffffffff -Ms 9 -Mt 806 -P arp -Po REQUEST -Pms 9 -Ps 9 -Pmd 0 -Pd 0 
r -t 1.012693494 -Hs 2 -Hd -2 -Ni 2 -Nx 389.00 -Ny 394.00 -Nz 0.00 -Ne -1.000000 -Nl MAC -Nw --- -Ma 0 -Md ffffffff -Ms 9 -Mt 806 -P arp -Po REQUEST -Pms 9 -Ps 9 -Pmd 0 -Pd 0 
r -t 1.012693622 -Hs 6 -Hd -2 -Ni 6 -Nx 339.00 -Ny 344.00 -Nz 0.00 -Ne -1.000000 -Nl MAC -Nw --- -Ma 0 -Md ffffffff -Ms 9 -Mt 806 -P arp -Po REQUEST -Pms 9 -Ps 9 -Pmd 0 -Pd 0 
r -t 1.012693649 -Hs 1 -Hd -2 -Ni 1 -Nx 339.00 -Ny 394.00 -Nz 0.00 -Ne -1.000000 -Nl MAC -Nw --- -Ma 0 -Md ffffffff -Ms 9 -Mt 806 -P arp -Po REQUEST -Pms 9 -Ps 9 -Pmd 0 -Pd 0 
r -t 1.012693788 -Hs 5 -Hd -2 -Ni 5 -Nx 289.00 -Ny 344.00 -Nz 0.00 -Ne -1.000000 -Nl MAC -Nw --- -Ma 0 -Md ffffffff -Ms 9 -Mt 806 -P arp -Po REQUEST -Pms 9 -Ps 9 -Pmd 0 -Pd 0 
r -t 1.012693809 -Hs 0 -Hd -2 -Ni 0 -Nx 289.00 -Ny 394.00 -Nz 0.00 -Ne -1.000000 -Nl MAC -Nw --- -Ma 0 -Md ffffffff -Ms 9 -Mt 806 -P arp -Po REQUEST -Pms 9 -Ps 9 -Pmd 0 -Pd 0 
s -t 1.013128809 -Hs 0 -Hd -2 -Ni 0 -Nx 289.00 -Ny 394.00 -Nz 0.00 -Ne -1.000000 -Nl MAC -Nw --- -Ma 52e -Md 9 -Ms 0 -Mt 0 
r -t 1.013481496 -Hs 9 -Hd -2 -Ni 9 -Nx 489.00 -Ny 344.00 -Nz 0.00 -Ne -1.000000 -Nl MAC -Nw --- -Ma 52e -Md 9 -Ms 0 -Mt 0 
s -t 1.013491496 -Hs 9 -Hd -2 -Ni 9 -Nx 489.00 -Ny 344.00 -Nz 0.00 -Ne -1.000000 -Nl MAC -Nw --- -Ma 3f4 -Md 0 -Ms 0 -Mt 0 
r -t 1.013796183 -Hs 0 -Hd -2 -Ni 0 -Nx 289.00 -Ny 394.00 -Nz 0.00 -Ne -1.000000 -Nl MAC -Nw --- -Ma 3f4 -Md 0 -Ms 0 -Mt 0 
s -t 1.013806183 -Hs 0 -Hd -2 -Ni 0 -Nx 289.00 -Ny 394.00 -Nz 0.00 -Ne -1.000000 -Nl MAC -Nw --- -Ma 13a -Md 9 -Ms 0 -Mt 806 -P arp -Po REPLY -Pms 0 -Ps 0 -Pmd 9 -Pd 9 
r -t 1.014494870 -Hs 9 -Hd -2 -Ni 9 -Nx 489.00 -Ny 344.00 -Nz 0.00 -Ne -1.000000 -Nl MAC -Nw --- -Ma 13a -Md 9 -Ms 0 -Mt 806 -P arp -Po REPLY -Pms 0 -Ps 0 -Pmd 9 -Pd 9 
s -t 1.014504870 -Hs 9 -Hd -2 -Ni 9 -Nx 489.00 -Ny 344.00 -Nz 0.00 -Ne -1.000000 -Nl MAC -Nw --- -Ma 0 -Md 0 -Ms 0 -Mt 0 
r -t 1.014809558 -Hs 0 -Hd -2 -Ni 0 -Nx 289.00 -Ny 394.00 -Nz 0.00 -Ne -1.000000 -Nl MAC -Nw --- -Ma 0 -Md 0 -Ms 0 -Mt 0 
s -t 1.014938870 -Hs 9 -Hd -2 -Ni 9 -Nx 489.00 -Ny 344.00 -Nz 0.00 -Ne -1.000000 -Nl MAC -Nw --- -Ma 5ae -Md 0 -Ms 9 -Mt 0 
r -t 1.015291558 -Hs 0 -Hd -2 -Ni 0 -Nx 289.00 -Ny 394.00 -Nz 0.00 -Ne -1.000000 -Nl MAC -Nw --- -Ma 5ae -Md 0 -Ms 9 -Mt 0 
s -t 1.015301558 -Hs 0 -Hd -2 -Ni 0 -Nx 289.00 -Ny 394.00 -Nz 0.00 -Ne -1.000000 -Nl MAC -Nw --- -Ma 474 -Md 9 -Ms 0 -Mt 0 
r -t 1.015606245 -Hs 9 -Hd -2 -Ni 9 -Nx 489.00 -Ny 344.00 -Nz 0.00 -Ne -1.000000 -Nl MAC -Nw --- -Ma 474 -Md 9 -Ms 0 -Mt 0 
s -t 1.015616245 -Hs 9 -Hd 0 -Ni 9 -Nx 489.00 -Ny 344.00 -Nz 0.00 -Ne -1.000000 -Nl MAC -Nw --- -Ma 13a -Md 0 -Ms 9 -Mt 800 -Is 9.255 -Id 0.255 -It DSR -Il 102 -If 0 -Ii 4 -Iv 254 -P dsr -Ph 2 -Pq 0 -Ps 1 -Pp 1 -Pn 1 -Pl 2 -Pe 0->9 -Pw 0 -Pm 0 -Pc 0 -Pb 0->0 
r -t 1.016432932 -Hs 0 -Hd 0 -Ni 0 -Nx 289.00 -Ny 394.00 -Nz 0.00 -Ne -1.000000 -Nl MAC -Nw --- -Ma 13a -Md 0 -Ms 9 -Mt 800 -Is 9.255 -Id 0.255 -It DSR -Il 44 -If 0 -Ii 4 -Iv 254 -P dsr -Ph 2 -Pq 0 -Ps 1 -Pp 1 -Pn 1 -Pl 2 -Pe 0->9 -Pw 0 -Pm 0 -Pc 0 -Pb 0->0 
s -t 1.016442932 -Hs 0 -Hd -2 -Ni 0 -Nx 289.00 -Ny 394.00 -Nz 0.00 -Ne -1.000000 -Nl MAC -Nw --- -Ma 0 -Md 9 -Ms 0 -Mt 0 
r -t 1.016457932 -Hs 0 -Hd 0 -Ni 0 -Nx 289.00 -Ny 394.00 -Nz 0.00 -Ne -1.000000 -Nl RTR -Nw --- -Ma 13a -Md 0 -Ms 9 -Mt 800 -Is 9.255 -Id 0.255 -It DSR -Il 44 -If 0 -Ii 4 -Iv 254 -P dsr -Ph 2 -Pq 0 -Ps 1 -Pp 1 -Pn 1 -Pl 2 -Pe 0->9 -Pw 0 -Pm 0 -Pc 0 -Pb 0->0 
SFESTs 1.016457932 _0_ 0 [0 -> 9] 1(1) to 9 [0 |9 ]
s -t 1.016457932 -Hs 0 -Hd 9 -Ni 0 -Nx 289.00 -Ny 394.00 -Nz 0.00 -Ne -1.000000 -Nl RTR -Nw --- -Ma 0 -Md 0 -Ms 0 -Mt 0 -Is 0.0 -Id 9.0 -It tcp -Il 76 -If 0 -Ii 0 -Iv 32 -Pn tcp -Ps 0 -Pa 0 -Pf 0 -Po 0 
r -t 1.016747619 -Hs 9 -Hd -2 -Ni 9 -Nx 489.00 -Ny 344.00 -Nz 0.00 -Ne -1.000000 -Nl MAC -Nw --- -Ma 0 -Md 9 -Ms 0 -Mt 0 
s -t 1.017276932 -Hs 0 -Hd -2 -Ni 0 -Nx 289.00 -Ny 394.00 -Nz 0.00 -Ne -1.000000 -Nl MAC -Nw --- -Ma 6ae -Md 9 -Ms 0 -Mt 0 
r -t 1.017629619 -Hs 9 -Hd -2 -Ni 9 -Nx 489.00 -Ny 344.00 -Nz 0.00 -Ne -1.000000 -Nl MAC -Nw --- -Ma 6ae -Md 9 -Ms 0 -Mt 0 
s -t 1.017639619 -Hs 9 -Hd -2 -Ni 9 -Nx 489.00 -Ny 344.00 -Nz 0.00 -Ne -1.000000 -Nl MAC -Nw --- -Ma 574 -Md 0 -Ms 0 -Mt 0 
r -t 1.017944306 -Hs 0 -Hd -2 -Ni 0 -Nx 289.00 -Ny 394.00 -Nz 0.00 -Ne -1.000000 -Nl MAC -Nw --- -Ma 574 -Md 0 -Ms 0 -Mt 0 
s -t 1.017954306 -Hs 0 -Hd 9 -Ni 0 -Nx 289.00 -Ny 394.00 -Nz 0.00 -Ne -1.000000 -Nl MAC -Nw --- -Ma 13a -Md 9 -Ms 0 -Mt 800 -Is 0.0 -Id 9.0 -It tcp -Il 134 -If 0 -Ii 0 -Iv 32 -Pn tcp -Ps 0 -Pa 0 -Pf 0 -Po 0 
s -t 1.018108067 -Hs 4 -Hd 5 -Ni 4 -Nx 489.00 -Ny 394.00 -Nz 0.00 -Ne -1.000000 -Nl RTR -Nw --- -Ma 0 -Md 0 -Ms 0 -Mt 0 -Is 4.255 -Id 5.255 -It DSR -Il 44 -If 0 -Ii 6 -Iv 254 -P dsr -Ph 2 -Pq 0 -Ps 1 -Pp 1 -Pn 1 -Pl 2 -Pe 5->4 -Pw 0 -Pm 0 -Pc 0 -Pb 0->0 
r -t 1.019026993 -Hs 9 -Hd 9 -Ni 9 -Nx 489.00 -Ny 344.00 -Nz 0.00 -Ne -1.000000 -Nl MAC -Nw --- -Ma 13a -Md 9 -Ms 0 -Mt 800 -Is 0.0 -Id 9.0 -It tcp -Il 76 -If 0 -Ii 0 -Iv 32 -Pn tcp -Ps 0 -Pa 0 -Pf 1 -Po 0 
s -t 1.019036993 -Hs 9 -Hd -2 -Ni 9 -Nx 489.00 -Ny 344.00 -Nz 0.00 -Ne -1.000000 -Nl MAC -Nw --- -Ma 0 -Md 0 -Ms 0 -Mt 0 
r -t 1.019051993 -Hs 9 -Hd 9 -Ni 9 -Nx 489.00 -Ny 344.00 -Nz 0.00 -Ne -1.000000 -Nl RTR -Nw --- -Ma 13a -Md 9 -Ms 0 -Mt 800 -Is 0.0 -Id 9.0 -It tcp -Il 76 -If 0 -Ii 0 -Iv 32 -Pn tcp -Ps 0 -Pa 0 -Pf 1 -Po 0 
r -t 1.019051993 -Hs 9 -Hd 9 -Ni 9 -Nx 489.00 -Ny 344.00 -Nz 0.00 -Ne -1.000000 -Nl AGT -Nw --- -Ma 13a -Md 9 -Ms 0 -Mt 800 -Is 0.0 -Id 9.0 -It tcp -Il 40 -If 0 -Ii 0 -Iv 32 -Pn tcp -Ps 0 -Pa 0 -Pf 1 -Po 0 
s -t 1.019051993 -Hs 9 -Hd -2 -Ni 9 -Nx 489.00 -Ny 344.00 -Nz 0.00 -Ne -1.000000 -Nl AGT -Nw --- -Ma 0 -Md 0 -Ms 0 -Mt 0 -Is 9.0 -Id 0.0 -It ack -Il 40 -If 0 -Ii 8 -Iv 32 -Pn tcp -Ps 0 -Pa 0 -Pf 0 -Po 0 
r -t 1.019051993 -Hs 9 -Hd -2 -Ni 9 -Nx 489.00 -Ny 344.00 -Nz 0.00 -Ne -1.000000 -Nl RTR -Nw --- -Ma 0 -Md 0 -Ms 0 -Mt 0 -Is 9.0 -Id 0.0 -It ack -Il 40 -If 0 -Ii 8 -Iv 32 -Pn tcp -Ps 0 -Pa 0 -Pf 0 -Po 0 
SFESTs 1.019051993 _9_ 8 [9 -> 0] 1(1) to 0 [9 |0 ]
s -t 1.019051993 -Hs 9 -Hd 0 -Ni 9 -Nx 489.00 -Ny 344.00 -Nz 0.00 -Ne -1.000000 -Nl RTR -Nw --- -Ma 0 -Md 0 -Ms 0 -Mt 0 -Is 9.0 -Id 0.0 -It ack -Il 76 -If 0 -Ii 8 -Iv 32 -Pn tcp -Ps 0 -Pa 0 -Pf 0 -Po 0 
r -t 1.019341681 -Hs 0 -Hd -2 -Ni 0 -Nx 289.00 -Ny 394.00 -Nz 0.00 -Ne -1.000000 -Nl MAC -Nw --- -Ma 0 -Md 0 -Ms 0 -Mt 0 
s -t 1.019490993 -Hs 9 -Hd -2 -Ni 9 -Nx 489.00 -Ny 344.00 -Nz 0.00 -Ne -1.000000 -Nl MAC -Nw --- -Ma 6ae -Md 0 -Ms 9 -Mt 0 
r -t 1.019843681 -Hs 0 -Hd -2 -Ni 0 -Nx 289.00 -Ny 394.00 -Nz 0.00 -Ne -1.000000 -Nl MAC -Nw --- -Ma 6ae -Md 0 -Ms 9 -Mt 0 
s -t 1.019853681 -Hs 0 -Hd -2 -Ni 0 -Nx 289.00 -Ny 394.00 -Nz 0.00 -Ne -1.000000 -Nl MAC -Nw --- -Ma 574 -Md 9 -Ms 0 -Mt 0 
r -t 1.020158368 -Hs 9 -Hd -2 -Ni 9 -Nx 489.00 -Ny 344.00 -Nz 0.00 -Ne -1.000000 -Nl MAC -Nw --- -Ma 574 -Md 9 -Ms 0 -Mt 0 
s -t 1.020168368 -Hs 9 -Hd 0 -Ni 9 -Nx 489.00 -Ny 344.00 -Nz 0.00 -Ne -1.000000 -Nl MAC -Nw --- -Ma 13a -Md 0 -Ms 9 -Mt 800 -Is 9.0 -Id 0.0 -It ack -Il 134 -If 0 -Ii 8 -Iv 32 -Pn tcp -Ps 0 -Pa 0 -Pf 0 -Po 0 
r -t 1.021241055 -Hs 0 -Hd 0 -Ni 0 -Nx 289.00 -Ny 394.00 -Nz 0.00 -Ne -1.000000 -Nl MAC -Nw --- -Ma 13a -Md 0 -Ms 9 -Mt 800 -Is 9.0 -Id 0.0 -It ack -Il 76 -If 0 -Ii 8 -Iv 32 -Pn tcp -Ps 0 -Pa 0 -Pf 1 -Po 0 
s -t 1.021251055 -Hs 0 -Hd -2 -Ni 0 -Nx 289.00 -Ny 394.00 -Nz 0.00 -Ne -1.000000 -Nl MAC -Nw --- -Ma 0 -Md 9 -Ms 0 -Mt 0 
r -t 1.021266055 -Hs 0 -Hd 0 -Ni 0 -Nx 289.00 -Ny 394.00 -Nz 0.00 -Ne -1.000000 -Nl RTR -Nw --- -Ma 13a -Md 0 -Ms 9 -Mt 800 -Is 9.0 -Id 0.0 -It ack -Il 76 -If 0 -Ii 8 -Iv 32 -Pn tcp -Ps 0 -Pa 0 -Pf 1 -Po 0 
r -t 1.021266055 -Hs 0 -Hd 0 -Ni 0 -Nx 289.00 -Ny 394.00 -Nz 0.00 -Ne -1.000000 -Nl AGT -Nw --- -Ma 13a -Md 0 -Ms 9 -Mt 800 -Is 9.0 -Id 0.0 -It ack -Il 40 -If 0 -Ii 8 -Iv 32 -Pn tcp -Ps 0 -Pa 0 -Pf 1 -Po 0 
s -t 1.021266055 -Hs 0 -Hd -2 -Ni 0 -Nx 289.00 -Ny 394.00 -Nz 0.00 -Ne -1.000000 -Nl AGT -Nw --- -Ma 0 -Md 0 -Ms 0 -Mt 0 -Is 0.0 -Id 9.0 -It tcp -Il 1540 -If 0 -Ii 9 -Iv 32 -Pn tcp -Ps 1 -Pa 0 -Pf 0 -Po 0 
r -t 1.021266055 -Hs 0 -Hd -2 -Ni 0 -Nx 289.00 -Ny 394.00 -Nz 0.00 -Ne -1.000000 -Nl RTR -Nw --- -Ma 0 -Md 0 -Ms 0 -Mt 0 -Is 0.0 -Id 9.0 -It tcp -Il 1540 -If 0 -Ii 9 -Iv 32 -Pn tcp -Ps 1 -Pa 0 -Pf 0 -Po 0 
SFESTs 1.021266055 _0_ 9 [0 -> 9] 1(1) to 9 [0 |9 ]
s -t 1.021266055 -Hs 0 -Hd -2 -Ni 0 -Nx 289.00 -Ny 394.00 -Nz 0.00 -Ne -1.000000 -Nl AGT -Nw --- -Ma 0 -Md 0 -Ms 0 -Mt 0 -Is 0.0 -Id 9.0 -It tcp -Il 1540 -If 0 -Ii 10 -Iv 32 -Pn tcp -Ps 2 -Pa 0 -Pf 0 -Po 0 
r -t 1.021266055 -Hs 0 -Hd -2 -Ni 0 -Nx 289.00 -Ny 394.00 -Nz 0.00 -Ne -1.000000 -Nl RTR -Nw --- -Ma 0 -Md 0 -Ms 0 -Mt 0 -Is 0.0 -Id 9.0 -It tcp -Il 1540 -If 0 -Ii 10 -Iv 32 -Pn tcp -Ps 2 -Pa 0 -Pf 0 -Po 0 
SFESTs 1.021266055 _0_ 10 [0 -> 9] 1(1) to 9 [0 |9 ]
s -t 1.021266055 -Hs 0 -Hd 9 -Ni 0 -Nx 289.00 -Ny 394.00 -Nz 0.00 -Ne -1.000000 -Nl RTR -Nw --- -Ma 0 -Md 0 -Ms 0 -Mt 0 -Is 0.0 -Id 9.0 -It tcp -Il 1576 -If 0 -Ii 9 -Iv 32 -Pn tcp -Ps 1 -Pa 0 -Pf 0 -Po 0 
s -t 1.021266055 -Hs 0 -Hd 9 -Ni 0 -Nx 289.00 -Ny 394.00 -Nz 0.00 -Ne -1.000000 -Nl RTR -Nw --- -Ma 0 -Md 0 -Ms 0 -Mt 0 -Is 0.0 -Id 9.0 -It tcp -Il 1576 -If 0 -Ii 10 -Iv 32 -Pn tcp -Ps 2 -Pa 0 -Pf 0 -Po 0 
r -t 1.021555742 -Hs 9 -Hd -2 -Ni 9 -Nx 489.00 -Ny 344.00 -Nz 0.00 -Ne -1.000000 -Nl MAC -Nw --- -Ma 0 -Md 9 -Ms 0 -Mt 0 
s -t 1.021745055 -Hs 0 -Hd -2 -Ni 0 -Nx 289.00 -Ny 394.00 -Nz 0.00 -Ne -1.000000 -Nl MAC -Nw --- -Ma 358e -Md 9 -Ms 0 -Mt 0 
r -t 1.022097742 -Hs 9 -Hd -2 -Ni 9 -Nx 489.00 -Ny 344.00 -Nz 0.00 -Ne -1.000000 -Nl MAC -Nw --- -Ma 358e -Md 9 -Ms 0 -Mt 0 
s -t 1.022107742 -Hs 9 -Hd -2 -Ni 9 -Nx 489.00 -Ny 344.00 -Nz 0.00 -Ne -1.000000 -Nl MAC -Nw --- -Ma 3454 -Md 0 -Ms 0 -Mt 0 
r -t 1.022412429 -Hs 0 -Hd -2 -Ni 0 -Nx 289.00 -Ny 394.00 -Nz 0.00 -Ne -1.000000 -Nl MAC -Nw --- -Ma 3454 -Md 0 -Ms 0 -Mt 0 
s -t 1.022422429 -Hs 0 -Hd 9 -Ni 0 -Nx 289.00 -Ny 394.00 -Nz 0.00 -Ne -1.000000 -Nl MAC -Nw --- -Ma 13a -Md 9 -Ms 0 -Mt 800 -Is 0.0 -Id 9.0 -It tcp -Il 1634 -If 0 -Ii 9 -Iv 32 -Pn tcp -Ps 1 -Pa 0 -Pf 0 -Po 0 
r -t 1.035495117 -Hs 9 -Hd 9 -Ni 9 -Nx 489.00 -Ny 344.00 -Nz 0.00 -Ne -1.000000 -Nl MAC -Nw --- -Ma 13a -Md 9 -Ms 0 -Mt 800 -Is 0.0 -Id 9.0 -It tcp -Il 1576 -If 0 -Ii 9 -Iv 32 -Pn tcp -Ps 1 -Pa 0 -Pf 1 -Po 0 
s -t 1.035505117 -Hs 9 -Hd -2 -Ni 9 -Nx 489.00 -Ny 344.00 -Nz 0.00 -Ne -1.000000 -Nl MAC -Nw --- -Ma 0 -Md 0 -Ms 0 -Mt 0 
r -t 1.035520117 -Hs 9 -Hd 9 -Ni 9 -Nx 489.00 -Ny 344.00 -Nz 0.00 -Ne -1.000000 -Nl RTR -Nw --- -Ma 13a -Md 9 -Ms 0 -Mt 800 -Is 0.0 -Id 9.0 -It tcp -Il 1576 -If 0 -Ii 9 -Iv 32 -Pn tcp -Ps 1 -Pa 0 -Pf 1 -Po 0 
r -t 1.035520117 -Hs 9 -Hd 9 -Ni 9 -Nx 489.00 -Ny 344.00 -Nz 0.00 -Ne -1.000000 -Nl AGT -Nw --- -Ma 13a -Md 9 -Ms 0 -Mt 800 -Is 0.0 -Id 9.0 -It tcp -Il 1540 -If 0 -Ii 9 -Iv 32 -Pn tcp -Ps 1 -Pa 0 -Pf 1 -Po 0 
s -t 1.035520117 -Hs 9 -Hd -2 -Ni 9 -Nx 489.00 -Ny 344.00 -Nz 0.00 -Ne -1.000000 -Nl AGT -Nw --- -Ma 0 -Md 0 -Ms 0 -Mt 0 -Is 9.0 -Id 0.0 -It ack -Il 40 -If 0 -Ii 11 -Iv 32 -Pn tcp -Ps 1 -Pa 0 -Pf 0 -Po 0 
r -t 1.035520117 -Hs 9 -Hd -2 -Ni 9 -Nx 489.00 -Ny 344.00 -Nz 0.00 -Ne -1.000000 -Nl RTR -Nw --- -Ma 0 -Md 0 -Ms 0 -Mt 0 -Is 9.0 -Id 0.0 -It ack -Il 40 -If 0 -Ii 11 -Iv 32 -Pn tcp -Ps 1 -Pa 0 -Pf 0 -Po 0 
SFESTs 1.035520117 _9_ 11 [9 -> 0] 1(1) to 0 [9 |0 ]
s -t 1.035520117 -Hs 9 -Hd 0 -Ni 9 -Nx 489.00 -Ny 344.00 -Nz 0.00 -Ne -1.000000 -Nl RTR -Nw --- -Ma 0 -Md 0 -Ms 0 -Mt 0 -Is 9.0 -Id 0.0 -It ack -Il 76 -If 0 -Ii 11 -Iv 32 -Pn tcp -Ps 1 -Pa 0 -Pf 0 -Po 0 
r -t 1.035809804 -Hs 0 -Hd -2 -Ni 0 -Nx 289.00 -Ny 394.00 -Nz 0.00 -Ne -1.000000 -Nl MAC -Nw --- -Ma 0 -Md 0 -Ms 0 -Mt 0 
s -t 1.036099283 -Hs 4 -Hd -2 -Ni 4 -Nx 489.00 -Ny 394.00 -Nz 0.00 -Ne -1.000000 -Nl MAC -Nw --- -Ma 0 -Md ffffffff -Ms 4 -Mt 806 -P arp -Po REQUEST -Pms 4 -Ps 4 -Pmd 0 -Pd 5 
r -t 1.036787450 -Hs 3 -Hd -2 -Ni 3 -Nx 439.00 -Ny 394.00 -Nz 0.00 -Ne -1.000000 -Nl MAC -Nw --- -Ma 0 -Md ffffffff -Ms 4 -Mt 806 -P arp -Po REQUEST -Pms 4 -Ps 4 -Pmd 0 -Pd 5 
r -t 1.036787450 -Hs 9 -Hd -2 -Ni 9 -Nx 489.00 -Ny 344.00 -Nz 0.00 -Ne -1.000000 -Nl MAC -Nw --- -Ma 0 -Md ffffffff -Ms 4 -Mt 806 -P arp -Po REQUEST -Pms 4 -Ps 4 -Pmd 0 -Pd 5 
r -t 1.036787519 -Hs 8 -Hd -2 -Ni 8 -Nx 439.00 -Ny 344.00 -Nz 0.00 -Ne -1.000000 -Nl MAC -Nw --- -Ma 0 -Md ffffffff -Ms 4 -Mt 806 -P arp -Po REQUEST -Pms 4 -Ps 4 -Pmd 0 -Pd 5 
r -t 1.036787617 -Hs 2 -Hd -2 -Ni 2 -Nx 389.00 -Ny 394.00 -Nz 0.00 -Ne -1.000000 -Nl MAC -Nw --- -Ma 0 -Md ffffffff -Ms 4 -Mt 806 -P arp -Po REQUEST -Pms 4 -Ps 4 -Pmd 0 -Pd 5 
r -t 1.036787656 -Hs 7 -Hd -2 -Ni 7 -Nx 389.00 -Ny 344.00 -Nz 0.00 -Ne -1.000000 -Nl MAC -Nw --- -Ma 0 -Md ffffffff -Ms 4 -Mt 806 -P arp -Po REQUEST -Pms 4 -Ps 4 -Pmd 0 -Pd 5 
r -t 1.036787783 -Hs 1 -Hd -2 -Ni 1 -Nx 339.00 -Ny 394.00 -Nz 0.00 -Ne -1.000000 -Nl MAC -Nw --- -Ma 0 -Md ffffffff -Ms 4 -Mt 806 -P arp -Po REQUEST -Pms 4 -Ps 4 -Pmd 0 -Pd 5 
r -t 1.036787810 -Hs 6 -Hd -2 -Ni 6 -Nx 339.00 -Ny 344.00 -Nz 0.00 -Ne -1.000000 -Nl MAC -Nw --- -Ma 0 -Md ffffffff -Ms 4 -Mt 806 -P arp -Po REQUEST -Pms 4 -Ps 4 -Pmd 0 -Pd 5 
r -t 1.036787950 -Hs 0 -Hd -2 -Ni 0 -Nx 289.00 -Ny 394.00 -Nz 0.00 -Ne -1.000000 -Nl MAC -Nw --- -Ma 0 -Md ffffffff -Ms 4 -Mt 806 -P arp -Po REQUEST -Pms 4 -Ps 4 -Pmd 0 -Pd 5 
r -t 1.036787970 -Hs 5 -Hd -2 -Ni 5 -Nx 289.00 -Ny 344.00 -Nz 0.00 -Ne -1.000000 -Nl MAC -Nw --- -Ma 0 -Md ffffffff -Ms 4 -Mt 806 -P arp -Po REQUEST -Pms 4 -Ps 4 -Pmd 0 -Pd 5 
s -t 1.036877450 -Hs 9 -Hd -2 -Ni 9 -Nx 489.00 -Ny 344.00 -Nz 0.00 -Ne -1.000000 -Nl MAC -Nw --- -Ma 6ae -Md 0 -Ms 9 -Mt 0 
r -t 1.037230137 -Hs 0 -Hd -2 -Ni 0 -Nx 289.00 -Ny 394.00 -Nz 0.00 -Ne -1.000000 -Nl MAC -Nw --- -Ma 6ae -Md 0 -Ms 9 -Mt 0 
s -t 1.037240137 -Hs 0 -Hd -2 -Ni 0 -Nx 289.00 -Ny 394.00 -Nz 0.00 -Ne -1.000000 -Nl MAC -Nw --- -Ma 574 -Md 9 -Ms 0 -Mt 0 
r -t 1.037544824 -Hs 9 -Hd -2 -Ni 9 -Nx 489.00 -Ny 344.00 -Nz 0.00 -Ne -1.000000 -Nl MAC -Nw --- -Ma 574 -Md 9 -Ms 0 -Mt 0 
s -t 1.037554824 -Hs 9 -Hd 0 -Ni 9 -Nx 489.00 -Ny 344.00 -Nz 0.00 -Ne -1.000000 -Nl MAC -Nw --- -Ma 13a -Md 0 -Ms 9 -Mt 800 -Is 9.0 -Id 0.0 -It ack -Il 134 -If 0 -Ii 11 -Iv 32 -Pn tcp -Ps 1 -Pa 0 -Pf 0 -Po 0 
r -t 1.038627511 -Hs 0 -Hd 0 -Ni 0 -Nx 289.00 -Ny 394.00 -Nz 0.00 -Ne -1.000000 -Nl MAC -Nw --- -Ma 13a -Md 0 -Ms 9 -Mt 800 -Is 9.0 -Id 0.0 -It ack -Il 76 -If 0 -Ii 11 -Iv 32 -Pn tcp -Ps 1 -Pa 0 -Pf 1 -Po 0 
s -t 1.038637511 -Hs 0 -Hd -2 -Ni 0 -Nx 289.00 -Ny 394.00 -Nz 0.00 -Ne -1.000000 -Nl MAC -Nw --- -Ma 0 -Md 9 -Ms 0 -Mt 0 
r -t 1.038652511 -Hs 0 -Hd 0 -Ni 0 -Nx 289.00 -Ny 394.00 -Nz 0.00 -Ne -1.000000 -Nl RTR -Nw --- -Ma 13a -Md 0 -Ms 9 -Mt 800 -Is 9.0 -Id 0.0 -It ack -Il 76 -If 0 -Ii 11 -Iv 32 -Pn tcp -Ps 1 -Pa 0 -Pf 1 -Po 0 
r -t 1.038652511 -Hs 0 -Hd 0 -Ni 0 -Nx 289.00 -Ny 394.00 -Nz 0.00 -Ne -1.000000 -Nl AGT -Nw --- -Ma 13a -Md 0 -Ms 9 -Mt 800 -Is 9.0 -Id 0.0 -It ack -Il 40 -If 0 -Ii 11 -Iv 32 -Pn tcp -Ps 1 -Pa 0 -Pf 1 -Po 0 
s -t 1.038652511 -Hs 0 -Hd -2 -Ni 0 -Nx 289.00 -Ny 394.00 -Nz 0.00 -Ne -1.000000 -Nl AGT -Nw --- -Ma 0 -Md 0 -Ms 0 -Mt 0 -Is 0.0 -Id 9.0 -It tcp -Il 1540 -If 0 -Ii 12 -Iv 32 -Pn tcp -Ps 3 -Pa 0 -Pf 0 -Po 0 
r -t 1.038652511 -Hs 0 -Hd -2 -Ni 0 -Nx 289.00 -Ny 394.00 -Nz 0.00 -Ne -1.000000 -Nl RTR -Nw --- -Ma 0 -Md 0 -Ms 0 -Mt 0 -Is 0.0 -Id 9.0 -It tcp -Il 1540 -If 0 -Ii 12 -Iv 32 -Pn tcp -Ps 3 -Pa 0 -Pf 0 -Po 0 
SFs 1.038652511 _0_ 12 [0 -> 9] 1(0) to 9 
s -t 1.038652511 -Hs 0 -Hd -2 -Ni 0 -Nx 289.00 -Ny 394.00 -Nz 0.00 -Ne -1.000000 -Nl AGT -Nw --- -Ma 0 -Md 0 -Ms 0 -Mt 0 -Is 0.0 -Id 9.0 -It tcp -Il 1540 -If 0 -Ii 13 -Iv 32 -Pn tcp -Ps 4 -Pa 0 -Pf 0 -Po 0 
r -t 1.038652511 -Hs 0 -Hd -2 -Ni 0 -Nx 289.00 -Ny 394.00 -Nz 0.00 -Ne -1.000000 -Nl RTR -Nw --- -Ma 0 -Md 0 -Ms 0 -Mt 0 -Is 0.0 -Id 9.0 -It tcp -Il 1540 -If 0 -Ii 13 -Iv 32 -Pn tcp -Ps 4 -Pa 0 -Pf 0 -Po 0 
SFs 1.038652511 _0_ 13 [0 -> 9] 1(0) to 9 
s -t 1.038652511 -Hs 0 -Hd 9 -Ni 0 -Nx 289.00 -Ny 394.00 -Nz 0.00 -Ne -1.000000 -Nl RTR -Nw --- -Ma 0 -Md 0 -Ms 0 -Mt 0 -Is 0.0 -Id 9.0 -It tcp -Il 1560 -If 0 -Ii 12 -Iv 32 -Pn tcp -Ps 3 -Pa 0 -Pf 0 -Po 0 
s -t 1.038652511 -Hs 0 -Hd 9 -Ni 0 -Nx 289.00 -Ny 394.00 -Nz 0.00 -Ne -1.000000 -Nl RTR -Nw --- -Ma 0 -Md 0 -Ms 0 -Mt 0 -Is 0.0 -Id 9.0 -It tcp -Il 1560 -If 0 -Ii 13 -Iv 32 -Pn tcp -Ps 4 -Pa 0 -Pf 0 -Po 0 
r -t 1.038942199 -Hs 9 -Hd -2 -Ni 9 -Nx 489.00 -Ny 344.00 -Nz 0.00 -Ne -1.000000 -Nl MAC -Nw --- -Ma 0 -Md 9 -Ms 0 -Mt 0 
s -t 1.039091678 -Hs 5 -Hd -2 -Ni 5 -Nx 289.00 -Ny 344.00 -Nz 0.00 -Ne -1.000000 -Nl MAC -Nw --- -Ma 52e -Md 4 -Ms 5 -Mt 0 
r -t 1.039444365 -Hs 4 -Hd -2 -Ni 4 -Nx 489.00 -Ny 394.00 -Nz 0.00 -Ne -1.000000 -Nl MAC -Nw --- -Ma 52e -Md 4 -Ms 5 -Mt 0 
s -t 1.039454365 -Hs 4 -Hd -2 -Ni 4 -Nx 489.00 -Ny 394.00 -Nz 0.00 -Ne -1.000000 -Nl MAC -Nw --- -Ma 3f4 -Md 5 -Ms 0 -Mt 0 
r -t 1.039759052 -Hs 5 -Hd -2 -Ni 5 -Nx 289.00 -Ny 344.00 -Nz 0.00 -Ne -1.000000 -Nl MAC -Nw --- -Ma 3f4 -Md 5 -Ms 0 -Mt 0 
s -t 1.039769052 -Hs 5 -Hd -2 -Ni 5 -Nx 289.00 -Ny 344.00 -Nz 0.00 -Ne -1.000000 -Nl MAC -Nw --- -Ma 13a -Md 4 -Ms 5 -Mt 806 -P arp -Po REPLY -Pms 5 -Ps 5 -Pmd 4 -Pd 4 
r -t 1.040457740 -Hs 4 -Hd -2 -Ni 4 -Nx 489.00 -Ny 394.00 -Nz 0.00 -Ne -1.000000 -Nl MAC -Nw --- -Ma 13a -Md 4 -Ms 5 -Mt 806 -P arp -Po REPLY -Pms 5 -Ps 5 -Pmd 4 -Pd 4 
s -t 1.040467740 -Hs 4 -Hd -2 -Ni 4 -Nx 489.00 -Ny 394.00 -Nz 0.00 -Ne -1.000000 -Nl MAC -Nw --- -Ma 0 -Md 5 -Ms 0 -Mt 0 
r -t 1.040772427 -Hs 5 -Hd -2 -Ni 5 -Nx 289.00 -Ny 344.00 -Nz 0.00 -Ne -1.000000 -Nl MAC -Nw --- -Ma 0 -Md 5 -Ms 0 -Mt 0 
s -t 1.040861740 -Hs 4 -Hd -2 -Ni 4 -Nx 489.00 -Ny 394.00 -Nz 0.00 -Ne -1.000000 -Nl MAC -Nw --- -Ma 5ae -Md 5 -Ms 4 -Mt 0 