n -t * -s 0  -x 322 -y 425 -Z 0 -z 20  -v circle -c black
n -t * -s 1  -x 372 -y 425 -Z 0 -z 20  -v circle -c black
n -t * -s 2  -x 422 -y 425 -Z 0 -z 20  -v circle -c black
n -t * -s 3  -x 472 -y 425 -Z 0 -z 20  -v circle -c black
n -t * -s 4  -x 522 -y 425 -Z 0 -z 20  -v circle -c black
n -t * -s 5  -x 322 -y 375 -Z 0 -z 20  -v circle -c black
n -t * -s 6  -x 372 -y 375 -Z 0 -z 20  -v circle -c black
n -t * -s 7  -x 422 -y 375 -Z 0 -z 20  -v circle -c black
n -t * -s 8  -x 472 -y 375 -Z 0 -z 20  -v circle -c black
n -t * -s 9  -x 522 -y 375 -Z 0 -z 20  -v circle -c black
n -t * -s 10  -x 322 -y 325 -Z 0 -z 20  -v circle -c black
n -t * -s 11  -x 372 -y 325 -Z 0 -z 20  -v circle -c black
n -t * -s 12  -x 422 -y 325 -Z 0 -z 20  -v circle -c black
n -t * -s 13  -x 472 -y 325 -Z 0 -z 20  -v circle -c black
n -t * -s 14  -x 522 -y 325 -Z 0 -z 20  -v circle -c black
n -t * -s 15  -x 322 -y 275 -Z 0 -z 20  -v circle -c black
n -t * -s 16  -x 372 -y 275 -Z 0 -z 20  -v circle -c black
n -t * -s 17  -x 422 -y 275 -Z 0 -z 20  -v circle -c black
n -t * -s 18  -x 472 -y 275 -Z 0 -z 20  -v circle -c black
n -t * -s 19  -x 522 -y 275 -Z 0 -z 20  -v circle -c black
V -t * -v 1.0a5 -a 0
W -t * -x 622 -y 525
A -t * -n 1 -p 0 -o 0x7fffffff -c 30 -a 1
A -t * -h 1 -m 1073741823 -s 0
+ -t 1.000000000 -s 0 -d -1 -p tcp -e 40 -c 2 -a 0 -i 0 -k AGT 
- -t 1.000000000 -s 0 -d -1 -p tcp -e 40 -c 2 -a 0 -i 0 -k AGT
h -t 1.000000000 -s 0 -d -1 -p tcp -e 40 -c 2 -a 0 -i 0 -k AGT
+ -t 1.000000000 -s 15 -d -1 -p tcp -e 40 -c 2 -a 0 -i 2 -k AGT 
- -t 1.000000000 -s 15 -d -1 -p tcp -e 40 -c 2 -a 0 -i 2 -k AGT
h -t 1.000000000 -s 15 -d -1 -p tcp -e 40 -c 2 -a 0 -i 2 -k AGT
+ -t 1.005822648 -s 15 -d -1 -p DSR -e 32 -c 2 -a 0 -i 3 -k RTR 
- -t 1.005822648 -s 15 -d -1 -p DSR -e 32 -c 2 -a 0 -i 3 -k RTR
h -t 1.005822648 -s 15 -d -1 -p DSR -e 32 -c 2 -a 0 -i 3 -k RTR
+ -t 1.006337648 -s 15 -d -1 -p DSR -e 90 -c 2 -a 0 -i 3 -k MAC 
- -t 1.006337648 -s 15 -d -1 -p DSR -e 90 -c 2 -a 0 -i 3 -k MAC
h -t 1.006337648 -s 15 -d -1 -p DSR -e 90 -c 2 -a 0 -i 3 -k MAC
r -t 1.007057814 -s 10 -d -1 -p DSR -e 32 -c 2 -a 0 -i 3 -k MAC
r -t 1.007057814 -s 16 -d -1 -p DSR -e 32 -c 2 -a 0 -i 3 -k MAC
r -t 1.007057883 -s 11 -d -1 -p DSR -e 32 -c 2 -a 0 -i 3 -k MAC
r -t 1.007057981 -s 5 -d -1 -p DSR -e 32 -c 2 -a 0 -i 3 -k MAC
r -t 1.007057981 -s 17 -d -1 -p DSR -e 32 -c 2 -a 0 -i 3 -k MAC
r -t 1.007058020 -s 6 -d -1 -p DSR -e 32 -c 2 -a 0 -i 3 -k MAC
r -t 1.007058020 -s 12 -d -1 -p DSR -e 32 -c 2 -a 0 -i 3 -k MAC
r -t 1.007058119 -s 7 -d -1 -p DSR -e 32 -c 2 -a 0 -i 3 -k MAC
r -t 1.007058148 -s 0 -d -1 -p DSR -e 32 -c 2 -a 0 -i 3 -k MAC
r -t 1.007058148 -s 18 -d -1 -p DSR -e 32 -c 2 -a 0 -i 3 -k MAC
r -t 1.007058175 -s 1 -d -1 -p DSR -e 32 -c 2 -a 0 -i 3 -k MAC
r -t 1.007058175 -s 13 -d -1 -p DSR -e 32 -c 2 -a 0 -i 3 -k MAC
r -t 1.007058249 -s 2 -d -1 -p DSR -e 32 -c 2 -a 0 -i 3 -k MAC
r -t 1.007058249 -s 8 -d -1 -p DSR -e 32 -c 2 -a 0 -i 3 -k MAC
r -t 1.007058314 -s 19 -d -1 -p DSR -e 32 -c 2 -a 0 -i 3 -k MAC
r -t 1.007058335 -s 14 -d -1 -p DSR -e 32 -c 2 -a 0 -i 3 -k MAC
r -t 1.007058355 -s 3 -d -1 -p DSR -e 32 -c 2 -a 0 -i 3 -k MAC
r -t 1.007058393 -s 9 -d -1 -p DSR -e 32 -c 2 -a 0 -i 3 -k MAC
r -t 1.007058481 -s 4 -d -1 -p DSR -e 32 -c 2 -a 0 -i 3 -k MAC
+ -t 1.007774088 -s 4 -d 15 -p DSR -e 44 -c 2 -a 0 -i 4 -k RTR 
- -t 1.007774088 -s 4 -d 15 -p DSR -e 44 -c 2 -a 0 -i 4 -k RTR
h -t 1.007774088 -s 4 -d 15 -p DSR -e 44 -c 2 -a 0 -i 4 -k RTR
+ -t 1.008369088 -s 4 -d -1 -p ARP -e 86 -c 2 -a 0 -i 0 -k MAC 
- -t 1.008369088 -s 4 -d -1 -p ARP -e 86 -c 2 -a 0 -i 0 -k MAC
h -t 1.008369088 -s 4 -d -1 -p ARP -e 86 -c 2 -a 0 -i 0 -k MAC
+ -t 1.008743815 -s 0 -d -1 -p DSR -e 32 -c 2 -a 0 -i 1 -k RTR 
- -t 1.008743815 -s 0 -d -1 -p DSR -e 32 -c 2 -a 0 -i 1 -k RTR
h -t 1.008743815 -s 0 -d -1 -p DSR -e 32 -c 2 -a 0 -i 1 -k RTR
r -t 1.009057254 -s 3 -d -1 -p ARP -e 28 -c 2 -a 0 -i 0 -k MAC
r -t 1.009057254 -s 9 -d -1 -p ARP -e 28 -c 2 -a 0 -i 0 -k MAC
r -t 1.009057323 -s 8 -d -1 -p ARP -e 28 -c 2 -a 0 -i 0 -k MAC
r -t 1.009057421 -s 2 -d -1 -p ARP -e 28 -c 2 -a 0 -i 0 -k MAC
r -t 1.009057421 -s 14 -d -1 -p ARP -e 28 -c 2 -a 0 -i 0 -k MAC
r -t 1.009057460 -s 13 -d -1 -p ARP -e 28 -c 2 -a 0 -i 0 -k MAC
r -t 1.009057460 -s 7 -d -1 -p ARP -e 28 -c 2 -a 0 -i 0 -k MAC
r -t 1.009057559 -s 12 -d -1 -p ARP -e 28 -c 2 -a 0 -i 0 -k MAC
r -t 1.009057588 -s 1 -d -1 -p ARP -e 28 -c 2 -a 0 -i 0 -k MAC
r -t 1.009057588 -s 19 -d -1 -p ARP -e 28 -c 2 -a 0 -i 0 -k MAC
r -t 1.009057615 -s 18 -d -1 -p ARP -e 28 -c 2 -a 0 -i 0 -k MAC
r -t 1.009057615 -s 6 -d -1 -p ARP -e 28 -c 2 -a 0 -i 0 -k MAC
r -t 1.009057688 -s 17 -d -1 -p ARP -e 28 -c 2 -a 0 -i 0 -k MAC
r -t 1.009057688 -s 11 -d -1 -p ARP -e 28 -c 2 -a 0 -i 0 -k MAC
r -t 1.009057754 -s 0 -d -1 -p ARP -e 28 -c 2 -a 0 -i 0 -k MAC
r -t 1.009057775 -s 5 -d -1 -p ARP -e 28 -c 2 -a 0 -i 0 -k MAC
r -t 1.009057795 -s 16 -d -1 -p ARP -e 28 -c 2 -a 0 -i 0 -k MAC
r -t 1.009057833 -s 10 -d -1 -p ARP -e 28 -c 2 -a 0 -i 0 -k MAC
r -t 1.009057921 -s 15 -d -1 -p ARP -e 28 -c 2 -a 0 -i 0 -k MAC
+ -t 1.009352921 -s 15 -d -1 -p RTS -e 44 -c 2 -a 0 -i 0 -k MAC 
- -t 1.009352921 -s 15 -d -1 -p RTS -e 44 -c 2 -a 0 -i 0 -k MAC
h -t 1.009352921 -s 15 -d -1 -p RTS -e 44 -c 2 -a 0 -i 0 -k MAC
r -t 1.009705754 -s 4 -d -1 -p RTS -e 44 -c 2 -a 0 -i 0 -k MAC
+ -t 1.009715754 -s 4 -d -1 -p CTS -e 38 -c 2 -a 0 -i 0 -k MAC 
- -t 1.009715754 -s 4 -d -1 -p CTS -e 38 -c 2 -a 0 -i 0 -k MAC
h -t 1.009715754 -s 4 -d -1 -p CTS -e 38 -c 2 -a 0 -i 0 -k MAC
r -t 1.010020588 -s 15 -d -1 -p CTS -e 38 -c 2 -a 0 -i 0 -k MAC
+ -t 1.010030588 -s 15 -d -1 -p ARP -e 86 -c 2 -a 0 -i 0 -k MAC 
- -t 1.010030588 -s 15 -d -1 -p ARP -e 86 -c 2 -a 0 -i 0 -k MAC
h -t 1.010030588 -s 15 -d -1 -p ARP -e 86 -c 2 -a 0 -i 0 -k MAC
r -t 1.010719421 -s 4 -d -1 -p ARP -e 28 -c 2 -a 0 -i 0 -k MAC
+ -t 1.010729421 -s 4 -d -1 -p ACK -e 38 -c 2 -a 0 -i 0 -k MAC 
- -t 1.010729421 -s 4 -d -1 -p ACK -e 38 -c 2 -a 0 -i 0 -k MAC
h -t 1.010729421 -s 4 -d -1 -p ACK -e 38 -c 2 -a 0 -i 0 -k MAC
r -t 1.011034254 -s 15 -d -1 -p ACK -e 38 -c 2 -a 0 -i 0 -k MAC
+ -t 1.011304088 -s 0 -d -1 -p DSR -e 90 -c 2 -a 0 -i 1 -k MAC 
- -t 1.011304088 -s 0 -d -1 -p DSR -e 90 -c 2 -a 0 -i 1 -k MAC
h -t 1.011304088 -s 0 -d -1 -p DSR -e 90 -c 2 -a 0 -i 1 -k MAC
r -t 1.012024254 -s 5 -d -1 -p DSR -e 32 -c 2 -a 0 -i 1 -k MAC
r -t 1.012024254 -s 1 -d -1 -p DSR -e 32 -c 2 -a 0 -i 1 -k MAC
r -t 1.012024323 -s 6 -d -1 -p DSR -e 32 -c 2 -a 0 -i 1 -k MAC
r -t 1.012024421 -s 10 -d -1 -p DSR -e 32 -c 2 -a 0 -i 1 -k MAC
r -t 1.012024421 -s 2 -d -1 -p DSR -e 32 -c 2 -a 0 -i 1 -k MAC
r -t 1.012024460 -s 11 -d -1 -p DSR -e 32 -c 2 -a 0 -i 1 -k MAC
r -t 1.012024460 -s 7 -d -1 -p DSR -e 32 -c 2 -a 0 -i 1 -k MAC
r -t 1.012024559 -s 12 -d -1 -p DSR -e 32 -c 2 -a 0 -i 1 -k MAC
r -t 1.012024588 -s 15 -d -1 -p DSR -e 32 -c 2 -a 0 -i 1 -k MAC
r -t 1.012024588 -s 3 -d -1 -p DSR -e 32 -c 2 -a 0 -i 1 -k MAC
r -t 1.012024615 -s 16 -d -1 -p DSR -e 32 -c 2 -a 0 -i 1 -k MAC
r -t 1.012024615 -s 8 -d -1 -p DSR -e 32 -c 2 -a 0 -i 1 -k MAC
r -t 1.012024688 -s 17 -d -1 -p DSR -e 32 -c 2 -a 0 -i 1 -k MAC
r -t 1.012024688 -s 13 -d -1 -p DSR -e 32 -c 2 -a 0 -i 1 -k MAC
r -t 1.012024754 -s 4 -d -1 -p DSR -e 32 -c 2 -a 0 -i 1 -k MAC
r -t 1.012024775 -s 9 -d -1 -p DSR -e 32 -c 2 -a 0 -i 1 -k MAC
r -t 1.012024795 -s 18 -d -1 -p DSR -e 32 -c 2 -a 0 -i 1 -k MAC
r -t 1.012024833 -s 14 -d -1 -p DSR -e 32 -c 2 -a 0 -i 1 -k MAC
r -t 1.012024921 -s 19 -d -1 -p DSR -e 32 -c 2 -a 0 -i 1 -k MAC
+ -t 1.012354754 -s 4 -d -1 -p RTS -e 44 -c 2 -a 0 -i 0 -k MAC 
- -t 1.012354754 -s 4 -d -1 -p RTS -e 44 -c 2 -a 0 -i 0 -k MAC
h -t 1.012354754 -s 4 -d -1 -p RTS -e 44 -c 2 -a 0 -i 0 -k MAC
r -t 1.012707588 -s 15 -d -1 -p RTS -e 44 -c 2 -a 0 -i 0 -k MAC
+ -t 1.012717588 -s 15 -d -1 -p CTS -e 38 -c 2 -a 0 -i 0 -k MAC 
- -t 1.012717588 -s 15 -d -1 -p CTS -e 38 -c 2 -a 0 -i 0 -k MAC
h -t 1.012717588 -s 15 -d -1 -p CTS -e 38 -c 2 -a 0 -i 0 -k MAC
r -t 1.013022421 -s 4 -d -1 -p CTS -e 38 -c 2 -a 0 -i 0 -k MAC
+ -t 1.013032421 -s 4 -d 15 -p DSR -e 102 -c 2 -a 0 -i 4 -k MAC 
- -t 1.013032421 -s 4 -d 15 -p DSR -e 102 -c 2 -a 0 -i 4 -k MAC
h -t 1.013032421 -s 4 -d 15 -p DSR -e 102 -c 2 -a 0 -i 4 -k MAC
r -t 1.013849254 -s 15 -d 15 -p DSR -e 44 -c 2 -a 0 -i 4 -k MAC
+ -t 1.013859254 -s 15 -d -1 -p ACK -e 38 -c 2 -a 0 -i 0 -k MAC 
- -t 1.013859254 -s 15 -d -1 -p ACK -e 38 -c 2 -a 0 -i 0 -k MAC
h -t 1.013859254 -s 15 -d -1 -p ACK -e 38 -c 2 -a 0 -i 0 -k MAC
+ -t 1.013874254 -s 15 -d 4 -p tcp -e 76 -c 2 -a 0 -i 2 -k RTR 
- -t 1.013874254 -s 15 -d 4 -p tcp -e 76 -c 2 -a 0 -i 2 -k RTR
h -t 1.013874254 -s 15 -d 4 -p tcp -e 76 -c 2 -a 0 -i 2 -k RTR
r -t 1.014164088 -s 4 -d -1 -p ACK -e 38 -c 2 -a 0 -i 0 -k MAC
+ -t 1.014253254 -s 15 -d -1 -p RTS -e 44 -c 2 -a 0 -i 0 -k MAC 
- -t 1.014253254 -s 15 -d -1 -p RTS -e 44 -c 2 -a 0 -i 0 -k MAC
h -t 1.014253254 -s 15 -d -1 -p RTS -e 44 -c 2 -a 0 -i 0 -k MAC
r -t 1.014606088 -s 4 -d -1 -p RTS -e 44 -c 2 -a 0 -i 0 -k MAC
+ -t 1.014616088 -s 4 -d -1 -p CTS -e 38 -c 2 -a 0 -i 0 -k MAC 
- -t 1.014616088 -s 4 -d -1 -p CTS -e 38 -c 2 -a 0 -i 0 -k MAC
h -t 1.014616088 -s 4 -d -1 -p CTS -e 38 -c 2 -a 0 -i 0 -k MAC
r -t 1.014920921 -s 15 -d -1 -p CTS -e 38 -c 2 -a 0 -i 0 -k MAC
+ -t 1.014930921 -s 15 -d 4 -p tcp -e 134 -c 2 -a 0 -i 2 -k MAC 
- -t 1.014930921 -s 15 -d 4 -p tcp -e 134 -c 2 -a 0 -i 2 -k MAC
h -t 1.014930921 -s 15 -d 4 -p tcp -e 134 -c 2 -a 0 -i 2 -k MAC
r -t 1.016003754 -s 4 -d 4 -p tcp -e 76 -c 2 -a 0 -i 2 -k MAC
+ -t 1.016013754 -s 4 -d -1 -p ACK -e 38 -c 2 -a 0 -i 0 -k MAC 
- -t 1.016013754 -s 4 -d -1 -p ACK -e 38 -c 2 -a 0 -i 0 -k MAC
h -t 1.016013754 -s 4 -d -1 -p ACK -e 38 -c 2 -a 0 -i 0 -k MAC
r -t 1.016028754 -s 4 -d 4 -p tcp -e 40 -c 2 -a 0 -i 2 -k AGT
+ -t 1.016028754 -s 4 -d -1 -p ack -e 40 -c 2 -a 0 -i 6 -k AGT 
- -t 1.016028754 -s 4 -d -1 -p ack -e 40 -c 2 -a 0 -i 6 -k AGT
h -t 1.016028754 -s 4 -d -1 -p ack -e 40 -c 2 -a 0 -i 6 -k AGT
+ -t 1.016028754 -s 4 -d 15 -p ack -e 76 -c 2 -a 0 -i 6 -k RTR 
- -t 1.016028754 -s 4 -d 15 -p ack -e 76 -c 2 -a 0 -i 6 -k RTR
h -t 1.016028754 -s 4 -d 15 -p ack -e 76 -c 2 -a 0 -i 6 -k RTR
r -t 1.016318588 -s 15 -d -1 -p ACK -e 38 -c 2 -a 0 -i 0 -k MAC
+ -t 1.016947754 -s 4 -d -1 -p RTS -e 44 -c 2 -a 0 -i 0 -k MAC 
- -t 1.016947754 -s 4 -d -1 -p RTS -e 44 -c 2 -a 0 -i 0 -k MAC
h -t 1.016947754 -s 4 -d -1 -p RTS -e 44 -c 2 -a 0 -i 0 -k MAC
r -t 1.017300588 -s 15 -d -1 -p RTS -e 44 -c 2 -a 0 -i 0 -k MAC
+ -t 1.017310588 -s 15 -d -1 -p CTS -e 38 -c 2 -a 0 -i 0 -k MAC 
- -t 1.017310588 -s 15 -d -1 -p CTS -e 38 -c 2 -a 0 -i 0 -k MAC
h -t 1.017310588 -s 15 -d -1 -p CTS -e 38 -c 2 -a 0 -i 0 -k MAC
r -t 1.017615421 -s 4 -d -1 -p CTS -e 38 -c 2 -a 0 -i 0 -k MAC
+ -t 1.017625421 -s 4 -d 15 -p ack -e 134 -c 2 -a 0 -i 6 -k MAC 
- -t 1.017625421 -s 4 -d 15 -p ack -e 134 -c 2 -a 0 -i 6 -k MAC
h -t 1.017625421 -s 4 -d 15 -p ack -e 134 -c 2 -a 0 -i 6 -k MAC
r -t 1.018698254 -s 15 -d 15 -p ack -e 76 -c 2 -a 0 -i 6 -k MAC
+ -t 1.018708254 -s 15 -d -1 -p ACK -e 38 -c 2 -a 0 -i 0 -k MAC 
- -t 1.018708254 -s 15 -d -1 -p ACK -e 38 -c 2 -a 0 -i 0 -k MAC
h -t 1.018708254 -s 15 -d -1 -p ACK -e 38 -c 2 -a 0 -i 0 -k MAC
r -t 1.018723254 -s 15 -d 15 -p ack -e 40 -c 2 -a 0 -i 6 -k AGT
+ -t 1.018723254 -s 15 -d -1 -p tcp -e 1540 -c 2 -a 0 -i 8 -k AGT 
- -t 1.018723254 -s 15 -d -1 -p tcp -e 1540 -c 2 -a 0 -i 8 -k AGT
h -t 1.018723254 -s 15 -d -1 -p tcp -e 1540 -c 2 -a 0 -i 8 -k AGT
+ -t 1.018723254 -s 15 -d -1 -p tcp -e 1540 -c 2 -a 0 -i 9 -k AGT 
- -t 1.018723254 -s 15 -d -1 -p tcp -e 1540 -c 2 -a 0 -i 9 -k AGT
h -t 1.018723254 -s 15 -d -1 -p tcp -e 1540 -c 2 -a 0 -i 9 -k AGT
+ -t 1.018723254 -s 15 -d 4 -p tcp -e 1576 -c 2 -a 0 -i 8 -k RTR 
- -t 1.018723254 -s 15 -d 4 -p tcp -e 1576 -c 2 -a 0 -i 8 -k RTR
h -t 1.018723254 -s 15 -d 4 -p tcp -e 1576 -c 2 -a 0 -i 8 -k RTR
+ -t 1.018723254 -s 15 -d 4 -p tcp -e 1576 -c 2 -a 0 -i 9 -k RTR 
- -t 1.018723254 -s 15 -d 4 -p tcp -e 1576 -c 2 -a 0 -i 9 -k RTR
h -t 1.018723254 -s 15 -d 4 -p tcp -e 1576 -c 2 -a 0 -i 9 -k RTR
r -t 1.019013088 -s 4 -d -1 -p ACK -e 38 -c 2 -a 0 -i 0 -k MAC
+ -t 1.019342254 -s 15 -d -1 -p RTS -e 44 -c 2 -a 0 -i 0 -k MAC 
- -t 1.019342254 -s 15 -d -1 -p RTS -e 44 -c 2 -a 0 -i 0 -k MAC
h -t 1.019342254 -s 15 -d -1 -p RTS -e 44 -c 2 -a 0 -i 0 -k MAC
r -t 1.019695088 -s 4 -d -1 -p RTS -e 44 -c 2 -a 0 -i 0 -k MAC
+ -t 1.019705088 -s 4 -d -1 -p CTS -e 38 -c 2 -a 0 -i 0 -k MAC 
- -t 1.019705088 -s 4 -d -1 -p CTS -e 38 -c 2 -a 0 -i 0 -k MAC
h -t 1.019705088 -s 4 -d -1 -p CTS -e 38 -c 2 -a 0 -i 0 -k MAC
r -t 1.020009921 -s 15 -d -1 -p CTS -e 38 -c 2 -a 0 -i 0 -k MAC
+ -t 1.020019921 -s 15 -d 4 -p tcp -e 1634 -c 2 -a 0 -i 8 -k MAC 
- -t 1.020019921 -s 15 -d 4 -p tcp -e 1634 -c 2 -a 0 -i 8 -k MAC
h -t 1.020019921 -s 15 -d 4 -p tcp -e 1634 -c 2 -a 0 -i 8 -k MAC
+ -t 1.020244743 -s 19 -d 0 -p DSR -e 44 -c 2 -a 0 -i 5 -k RTR 
- -t 1.020244743 -s 19 -d 0 -p DSR -e 44 -c 2 -a 0 -i 5 -k RTR
h -t 1.020244743 -s 19 -d 0 -p DSR -e 44 -c 2 -a 0 -i 5 -k RTR
r -t 1.033092754 -s 4 -d 4 -p tcp -e 1576 -c 2 -a 0 -i 8 -k MAC
+ -t 1.033102754 -s 4 -d -1 -p ACK -e 38 -c 2 -a 0 -i 0 -k MAC 
- -t 1.033102754 -s 4 -d -1 -p ACK -e 38 -c 2 -a 0 -i 0 -k MAC
h -t 1.033102754 -s 4 -d -1 -p ACK -e 38 -c 2 -a 0 -i 0 -k MAC
r -t 1.033117754 -s 4 -d 4 -p tcp -e 1540 -c 2 -a 0 -i 8 -k AGT
+ -t 1.033117754 -s 4 -d -1 -p ack -e 40 -c 2 -a 0 -i 10 -k AGT 
- -t 1.033117754 -s 4 -d -1 -p ack -e 40 -c 2 -a 0 -i 10 -k AGT
h -t 1.033117754 -s 4 -d -1 -p ack -e 40 -c 2 -a 0 -i 10 -k AGT
+ -t 1.033117754 -s 4 -d 15 -p ack -e 76 -c 2 -a 0 -i 10 -k RTR 
- -t 1.033117754 -s 4 -d 15 -p ack -e 76 -c 2 -a 0 -i 10 -k RTR
h -t 1.033117754 -s 4 -d 15 -p ack -e 76 -c 2 -a 0 -i 10 -k RTR
r -t 1.033407588 -s 15 -d -1 -p ACK -e 38 -c 2 -a 0 -i 0 -k MAC
+ -t 1.033576754 -s 4 -d -1 -p RTS -e 44 -c 2 -a 0 -i 0 -k MAC 
- -t 1.033576754 -s 4 -d -1 -p RTS -e 44 -c 2 -a 0 -i 0 -k MAC
h -t 1.033576754 -s 4 -d -1 -p RTS -e 44 -c 2 -a 0 -i 0 -k MAC
r -t 1.033929588 -s 15 -d -1 -p RTS -e 44 -c 2 -a 0 -i 0 -k MAC
+ -t 1.033939588 -s 15 -d -1 -p CTS -e 38 -c 2 -a 0 -i 0 -k MAC 
- -t 1.033939588 -s 15 -d -1 -p CTS -e 38 -c 2 -a 0 -i 0 -k MAC
h -t 1.033939588 -s 15 -d -1 -p CTS -e 38 -c 2 -a 0 -i 0 -k MAC
r -t 1.034244421 -s 4 -d -1 -p CTS -e 38 -c 2 -a 0 -i 0 -k MAC
+ -t 1.034254421 -s 4 -d 15 -p ack -e 134 -c 2 -a 0 -i 10 -k MAC 
- -t 1.034254421 -s 4 -d 15 -p ack -e 134 -c 2 -a 0 -i 10 -k MAC
h -t 1.034254421 -s 4 -d 15 -p ack -e 134 -c 2 -a 0 -i 10 -k MAC
r -t 1.035327254 -s 15 -d 15 -p ack -e 76 -c 2 -a 0 -i 10 -k MAC
+ -t 1.035337254 -s 15 -d -1 -p ACK -e 38 -c 2 -a 0 -i 0 -k MAC 
- -t 1.035337254 -s 15 -d -1 -p ACK -e 38 -c 2 -a 0 -i 0 -k MAC
h -t 1.035337254 -s 15 -d -1 -p ACK -e 38 -c 2 -a 0 -i 0 -k MAC
r -t 1.035352254 -s 15 -d 15 -p ack -e 40 -c 2 -a 0 -i 10 -k AGT
+ -t 1.035352254 -s 15 -d -1 -p tcp -e 1540 -c 2 -a 0 -i 11 -k AGT 
- -t 1.035352254 -s 15 -d -1 -p tcp -e 1540 -c 2 -a 0 -i 11 -k AGT
h -t 1.035352254 -s 15 -d -1 -p tcp -e 1540 -c 2 -a 0 -i 11 -k AGT
+ -t 1.035352254 -s 15 -d -1 -p tcp -e 1540 -c 2 -a 0 -i 12 -k AGT 
- -t 1.035352254 -s 15 -d -1 -p tcp -e 1540 -c 2 -a 0 -i 12 -k AGT
h -t 1.035352254 -s 15 -d -1 -p tcp -e 1540 -c 2 -a 0 -i 12 -k AGT
+ -t 1.035352254 -s 15 -d 4 -p tcp -e 1560 -c 2 -a 0 -i 11 -k RTR 
- -t 1.035352254 -s 15 -d 4 -p tcp -e 1560 -c 2 -a 0 -i 11 -k RTR
h -t 1.035352254 -s 15 -d 4 -p tcp -e 1560 -c 2 -a 0 -i 11 -k RTR
+ -t 1.035352254 -s 15 -d 4 -p tcp -e 1560 -c 2 -a 0 -i 12 -k RTR 
- -t 1.035352254 -s 15 -d 4 -p tcp -e 1560 -c 2 -a 0 -i 12 -k RTR
h -t 1.035352254 -s 15 -d 4 -p tcp -e 1560 -c 2 -a 0 -i 12 -k RTR
r -t 1.035642088 -s 4 -d -1 -p ACK -e 38 -c 2 -a 0 -i 0 -k MAC
+ -t 1.036071921 -s 19 -d -1 -p ARP -e 86 -c 2 -a 0 -i 0 -k MAC 
- -t 1.036071921 -s 19 -d -1 -p ARP -e 86 -c 2 -a 0 -i 0 -k MAC
h -t 1.036071921 -s 19 -d -1 -p ARP -e 86 -c 2 -a 0 -i 0 -k MAC
r -t 1.036760088 -s 14 -d -1 -p ARP -e 28 -c 2 -a 0 -i 0 -k MAC
r -t 1.036760088 -s 18 -d -1 -p ARP -e 28 -c 2 -a 0 -i 0 -k MAC
r -t 1.036760157 -s 13 -d -1 -p ARP -e 28 -c 2 -a 0 -i 0 -k MAC
r -t 1.036760254 -s 9 -d -1 -p ARP -e 28 -c 2 -a 0 -i 0 -k MAC
r -t 1.036760254 -s 17 -d -1 -p ARP -e 28 -c 2 -a 0 -i 0 -k MAC
r -t 1.036760294 -s 8 -d -1 -p ARP -e 28 -c 2 -a 0 -i 0 -k MAC
r -t 1.036760294 -s 12 -d -1 -p ARP -e 28 -c 2 -a 0 -i 0 -k MAC
r -t 1.036760392 -s 7 -d -1 -p ARP -e 28 -c 2 -a 0 -i 0 -k MAC
r -t 1.036760421 -s 4 -d -1 -p ARP -e 28 -c 2 -a 0 -i 0 -k MAC
r -t 1.036760421 -s 16 -d -1 -p ARP -e 28 -c 2 -a 0 -i 0 -k MAC
r -t 1.036760448 -s 3 -d -1 -p ARP -e 28 -c 2 -a 0 -i 0 -k MAC
r -t 1.036760448 -s 11 -d -1 -p ARP -e 28 -c 2 -a 0 -i 0 -k MAC
r -t 1.036760522 -s 2 -d -1 -p ARP -e 28 -c 2 -a 0 -i 0 -k MAC
r -t 1.036760522 -s 6 -d -1 -p ARP -e 28 -c 2 -a 0 -i 0 -k MAC
r -t 1.036760588 -s 15 -d -1 -p ARP -e 28 -c 2 -a 0 -i 0 -k MAC
r -t 1.036760608 -s 10 -d -1 -p ARP -e 28 -c 2 -a 0 -i 0 -k MAC
r -t 1.036760628 -s 1 -d -1 -p ARP -e 28 -c 2 -a 0 -i 0 -k MAC
r -t 1.036760666 -s 5 -d -1 -p ARP -e 28 -c 2 -a 0 -i 0 -k MAC
r -t 1.036760754 -s 0 -d -1 -p ARP -e 28 -c 2 -a 0 -i 0 -k MAC
+ -t 1.036850588 -s 15 -d -1 -p RTS -e 44 -c 2 -a 0 -i 0 -k MAC 
- -t 1.036850588 -s 15 -d -1 -p RTS -e 44 -c 2 -a 0 -i 0 -k MAC
h -t 1.036850588 -s 15 -d -1 -p RTS -e 44 -c 2 -a 0 -i 0 -k MAC
r -t 1.037203421 -s 4 -d -1 -p RTS -e 44 -c 2 -a 0 -i 0 -k MAC
+ -t 1.037213421 -s 4 -d -1 -p CTS -e 38 -c 2 -a 0 -i 0 -k MAC 
- -t 1.037213421 -s 4 -d -1 -p CTS -e 38 -c 2 -a 0 -i 0 -k MAC
h -t 1.037213421 -s 4 -d -1 -p CTS -e 38 -c 2 -a 0 -i 0 -k MAC
r -t 1.037518254 -s 15 -d -1 -p CTS -e 38 -c 2 -a 0 -i 0 -k MAC
+ -t 1.037528254 -s 15 -d 4 -p tcp -e 1634 -c 2 -a 0 -i 9 -k MAC 
- -t 1.037528254 -s 15 -d 4 -p tcp -e 1634 -c 2 -a 0 -i 9 -k MAC
h -t 1.037528254 -s 15 -d 4 -p tcp -e 1634 -c 2 -a 0 -i 9 -k MAC
r -t 1.050601088 -s 4 -d 4 -p tcp -e 1576 -c 2 -a 0 -i 9 -k MAC
+ -t 1.050611088 -s 4 -d -1 -p ACK -e 38 -c 2 -a 0 -i 0 -k MAC 
- -t 1.050611088 -s 4 -d -1 -p ACK -e 38 -c 2 -a 0 -i 0 -k MAC
h -t 1.050611088 -s 4 -d -1 -p ACK -e 38 -c 2 -a 0 -i 0 -k MAC
r -t 1.050626088 -s 4 -d 4 -p tcp -e 1540 -c 2 -a 0 -i 9 -k AGT
+ -t 1.050626088 -s 4 -d -1 -p ack -e 40 -c 2 -a 0 -i 13 -k AGT 
- -t 1.050626088 -s 4 -d -1 -p ack -e 40 -c 2 -a 0 -i 13 -k AGT
h -t 1.050626088 -s 4 -d -1 -p ack -e 40 -c 2 -a 0 -i 13 -k AGT
+ -t 1.050626088 -s 4 -d 15 -p ack -e 76 -c 2 -a 0 -i 13 -k RTR 
- -t 1.050626088 -s 4 -d 15 -p ack -e 76 -c 2 -a 0 -i 13 -k RTR
h -t 1.050626088 -s 4 -d 15 -p ack -e 76 -c 2 -a 0 -i 13 -k RTR
r -t 1.050915921 -s 15 -d -1 -p ACK -e 38 -c 2 -a 0 -i 0 -k MAC
+ -t 1.051125754 -s 0 -d -1 -p RTS -e 44 -c 2 -a 0 -i 0 -k MAC 
- -t 1.051125754 -s 0 -d -1 -p RTS -e 44 -c 2 -a 0 -i 0 -k MAC
h -t 1.051125754 -s 0 -d -1 -p RTS -e 44 -c 2 -a 0 -i 0 -k MAC
r -t 1.051478588 -s 19 -d -1 -p RTS -e 44 -c 2 -a 0 -i 0 -k MAC
+ -t 1.051488588 -s 19 -d -1 -p CTS -e 38 -c 2 -a 0 -i 0 -k MAC 
- -t 1.051488588 -s 19 -d -1 -p CTS -e 38 -c 2 -a 0 -i 0 -k MAC
h -t 1.051488588 -s 19 -d -1 -p CTS -e 38 -c 2 -a 0 -i 0 -k MAC
r -t 1.051793421 -s 0 -d -1 -p CTS -e 38 -c 2 -a 0 -i 0 -k MAC
+ -t 1.051803421 -s 0 -d -1 -p ARP -e 86 -c 2 -a 0 -i 0 -k MAC 
- -t 1.051803421 -s 0 -d -1 -p ARP -e 86 -c 2 -a 0 -i 0 -k MAC
h -t 1.051803421 -s 0 -d -1 -p ARP -e 86 -c 2 -a 0 -i 0 -k MAC
r -t 1.052492254 -s 19 -d -1 -p ARP -e 28 -c 2 -a 0 -i 0 -k MAC
+ -t 1.052502254 -s 19 -d -1 -p ACK -e 38 -c 2 -a 0 -i 0 -k MAC 
- -t 1.052502254 -s 19 -d -1 -p ACK -e 38 -c 2 -a 0 -i 0 -k MAC
h -t 1.052502254 -s 19 -d -1 -p ACK -e 38 -c 2 -a 0 -i 0 -k MAC
r -t 1.052807088 -s 0 -d -1 -p ACK -e 38 -c 2 -a 0 -i 0 -k MAC
+ -t 1.052996754 -s 4 -d -1 -p RTS -e 44 -c 2 -a 0 -i 0 -k MAC 
- -t 1.052996754 -s 4 -d -1 -p RTS -e 44 -c 2 -a 0 -i 0 -k MAC
h -t 1.052996754 -s 4 -d -1 -p RTS -e 44 -c 2 -a 0 -i 0 -k MAC
r -t 1.053349588 -s 15 -d -1 -p RTS -e 44 -c 2 -a 0 -i 0 -k MAC
+ -t 1.053359588 -s 15 -d -1 -p CTS -e 38 -c 2 -a 0 -i 0 -k MAC 
- -t 1.053359588 -s 15 -d -1 -p CTS -e 38 -c 2 -a 0 -i 0 -k MAC
h -t 1.053359588 -s 15 -d -1 -p CTS -e 38 -c 2 -a 0 -i 0 -k MAC
r -t 1.053664421 -s 4 -d -1 -p CTS -e 38 -c 2 -a 0 -i 0 -k MAC
+ -t 1.053674421 -s 4 -d 15 -p ack -e 134 -c 2 -a 0 -i 13 -k MAC 
- -t 1.053674421 -s 4 -d 15 -p ack -e 134 -c 2 -a 0 -i 13 -k MAC
h -t 1.053674421 -s 4 -d 15 -p ack -e 134 -c 2 -a 0 -i 13 -k MAC
r -t 1.054747254 -s 15 -d 15 -p ack -e 76 -c 2 -a 0 -i 13 -k MAC
+ -t 1.054757254 -s 15 -d -1 -p ACK -e 38 -c 2 -a 0 -i 0 -k MAC 
- -t 1.054757254 -s 15 -d -1 -p ACK -e 38 -c 2 -a 0 -i 0 -k MAC
h -t 1.054757254 -s 15 -d -1 -p ACK -e 38 -c 2 -a 0 -i 0 -k MAC
r -t 1.054772254 -s 15 -d 15 -p ack -e 40 -c 2 -a 0 -i 13 -k AGT
+ -t 1.054772254 -s 15 -d -1 -p tcp -e 1540 -c 2 -a 0 -i 14 -k AGT 
- -t 1.054772254 -s 15 -d -1 -p tcp -e 1540 -c 2 -a 0 -i 14 -k AGT
h -t 1.054772254 -s 15 -d -1 -p tcp -e 1540 -c 2 -a 0 -i 14 -k AGT
+ -t 1.054772254 -s 15 -d -1 -p tcp -e 1540 -c 2 -a 0 -i 15 -k AGT 
- -t 1.054772254 -s 15 -d -1 -p tcp -e 1540 -c 2 -a 0 -i 15 -k AGT
h -t 1.054772254 -s 15 -d -1 -p tcp -e 1540 -c 2 -a 0 -i 15 -k AGT
+ -t 1.054772254 -s 15 -d 4 -p tcp -e 1560 -c 2 -a 0 -i 14 -k RTR 
- -t 1.054772254 -s 15 -d 4 -p tcp -e 1560 -c 2 -a 0 -i 14 -k RTR
h -t 1.054772254 -s 15 -d 4 -p tcp -e 1560 -c 2 -a 0 -i 14 -k RTR
+ -t 1.054772254 -s 15 -d 4 -p tcp -e 1560 -c 2 -a 0 -i 15 -k RTR 
- -t 1.054772254 -s 15 -d 4 -p tcp -e 1560 -c 2 -a 0 -i 15 -k RTR
h -t 1.054772254 -s 15 -d 4 -p tcp -e 1560 -c 2 -a 0 -i 15 -k RTR
r -t 1.055062088 -s 4 -d -1 -p ACK -e 38 -c 2 -a 0 -i 0 -k MAC
+ -t 1.055211921 -s 19 -d -1 -p RTS -e 44 -c 2 -a 0 -i 0 -k MAC 
- -t 1.055211921 -s 19 -d -1 -p RTS -e 44 -c 2 -a 0 -i 0 -k MAC
h -t 1.055211921 -s 19 -d -1 -p RTS -e 44 -c 2 -a 0 -i 0 -k MAC
r -t 1.055564754 -s 0 -d -1 -p RTS -e 44 -c 2 -a 0 -i 0 -k MAC
+ -t 1.055574754 -s 0 -d -1 -p CTS -e 38 -c 2 -a 0 -i 0 -k MAC 
- -t 1.055574754 -s 0 -d -1 -p CTS -e 38 -c 2 -a 0 -i 0 -k MAC
h -t 1.055574754 -s 0 -d -1 -p CTS -e 38 -c 2 -a 0 -i 0 -k MAC
r -t 1.055879588 -s 19 -d -1 -p CTS -e 38 -c 2 -a 0 -i 0 -k MAC
+ -t 1.055889588 -s 19 -d 0 -p DSR -e 102 -c 2 -a 0 -i 5 -k MAC 
- -t 1.055889588 -s 19 -d 0 -p DSR -e 102 -c 2 -a 0 -i 5 -k MAC
h -t 1.055889588 -s 19 -d 0 -p DSR -e 102 -c 2 -a 0 -i 5 -k MAC
r -t 1.056706421 -s 0 -d 0 -p DSR -e 44 -c 2 -a 0 -i 5 -k MAC
+ -t 1.056716421 -s 0 -d -1 -p ACK -e 38 -c 2 -a 0 -i 0 -k MAC 
- -t 1.056716421 -s 0 -d -1 -p ACK -e 38 -c 2 -a 0 -i 0 -k MAC
h -t 1.056716421 -s 0 -d -1 -p ACK -e 38 -c 2 -a 0 -i 0 -k MAC
+ -t 1.056731421 -s 0 -d 19 -p tcp -e 76 -c 2 -a 0 -i 0 -k RTR 
- -t 1.056731421 -s 0 -d 19 -p tcp -e 76 -c 2 -a 0 -i 0 -k RTR
h -t 1.056731421 -s 0 -d 19 -p tcp -e 76 -c 2 -a 0 -i 0 -k RTR
r -t 1.057021254 -s 19 -d -1 -p ACK -e 38 -c 2 -a 0 -i 0 -k MAC
+ -t 1.057270921 -s 15 -d -1 -p RTS -e 44 -c 2 -a 0 -i 0 -k MAC 
- -t 1.057270921 -s 15 -d -1 -p RTS -e 44 -c 2 -a 0 -i 0 -k MAC
h -t 1.057270921 -s 15 -d -1 -p RTS -e 44 -c 2 -a 0 -i 0 -k MAC
r -t 1.057623754 -s 4 -d -1 -p RTS -e 44 -c 2 -a 0 -i 0 -k MAC
+ -t 1.057633754 -s 4 -d -1 -p CTS -e 38 -c 2 -a 0 -i 0 -k MAC 
- -t 1.057633754 -s 4 -d -1 -p CTS -e 38 -c 2 -a 0 -i 0 -k MAC
h -t 1.057633754 -s 4 -d -1 -p CTS -e 38 -c 2 -a 0 -i 0 -k MAC
r -t 1.057938588 -s 15 -d -1 -p CTS -e 38 -c 2 -a 0 -i 0 -k MAC
+ -t 1.057948588 -s 15 -d 4 -p tcp -e 1618 -c 2 -a 0 -i 11 -k MAC 
- -t 1.057948588 -s 15 -d 4 -p tcp -e 1618 -c 2 -a 0 -i 11 -k MAC
h -t 1.057948588 -s 15 -d 4 -p tcp -e 1618 -c 2 -a 0 -i 11 -k MAC
r -t 1.070893421 -s 4 -d 4 -p tcp -e 1560 -c 2 -a 0 -i 11 -k MAC
+ -t 1.070903421 -s 4 -d -1 -p ACK -e 38 -c 2 -a 0 -i 0 -k MAC 
- -t 1.070903421 -s 4 -d -1 -p ACK -e 38 -c 2 -a 0 -i 0 -k MAC
h -t 1.070903421 -s 4 -d -1 -p ACK -e 38 -c 2 -a 0 -i 0 -k MAC
r -t 1.070918421 -s 4 -d 4 -p tcp -e 1540 -c 2 -a 0 -i 11 -k AGT
+ -t 1.070918421 -s 4 -d -1 -p ack -e 40 -c 2 -a 0 -i 16 -k AGT 
- -t 1.070918421 -s 4 -d -1 -p ack -e 40 -c 2 -a 0 -i 16 -k AGT
h -t 1.070918421 -s 4 -d -1 -p ack -e 40 -c 2 -a 0 -i 16 -k AGT
+ -t 1.070918421 -s 4 -d 15 -p ack -e 60 -c 2 -a 0 -i 16 -k RTR 
- -t 1.070918421 -s 4 -d 15 -p ack -e 60 -c 2 -a 0 -i 16 -k RTR
h -t 1.070918421 -s 4 -d 15 -p ack -e 60 -c 2 -a 0 -i 16 -k RTR
r -t 1.071208254 -s 15 -d -1 -p ACK -e 38 -c 2 -a 0 -i 0 -k MAC
+ -t 1.071278088 -s 0 -d -1 -p RTS -e 44 -c 2 -a 0 -i 0 -k MAC 
- -t 1.071278088 -s 0 -d -1 -p RTS -e 44 -c 2 -a 0 -i 0 -k MAC
h -t 1.071278088 -s 0 -d -1 -p RTS -e 44 -c 2 -a 0 -i 0 -k MAC
r -t 1.071630921 -s 19 -d -1 -p RTS -e 44 -c 2 -a 0 -i 0 -k MAC
+ -t 1.071640921 -s 19 -d -1 -p CTS -e 38 -c 2 -a 0 -i 0 -k MAC 
- -t 1.071640921 -s 19 -d -1 -p CTS -e 38 -c 2 -a 0 -i 0 -k MAC
h -t 1.071640921 -s 19 -d -1 -p CTS -e 38 -c 2 -a 0 -i 0 -k MAC
r -t 1.071945754 -s 0 -d -1 -p CTS -e 38 -c 2 -a 0 -i 0 -k MAC
+ -t 1.071955754 -s 0 -d 19 -p tcp -e 134 -c 2 -a 0 -i 0 -k MAC 
- -t 1.071955754 -s 0 -d 19 -p tcp -e 134 -c 2 -a 0 -i 0 -k MAC
h -t 1.071955754 -s 0 -d 19 -p tcp -e 134 -c 2 -a 0 -i 0 -k MAC
r -t 1.073028588 -s 19 -d 19 -p tcp -e 76 -c 2 -a 0 -i 0 -k MAC
+ -t 1.073038588 -s 19 -d -1 -p ACK -e 38 -c 2 -a 0 -i 0 -k MAC 
- -t 1.073038588 -s 19 -d -1 -p ACK -e 38 -c 2 -a 0 -i 0 -k MAC
h -t 1.073038588 -s 19 -d -1 -p ACK -e 38 -c 2 -a 0 -i 0 -k MAC
r -t 1.073053588 -s 19 -d 19 -p tcp -e 40 -c 2 -a 0 -i 0 -k AGT
+ -t 1.073053588 -s 19 -d -1 -p ack -e 40 -c 2 -a 0 -i 17 -k AGT 
- -t 1.073053588 -s 19 -d -1 -p ack -e 40 -c 2 -a 0 -i 17 -k AGT
h -t 1.073053588 -s 19 -d -1 -p ack -e 40 -c 2 -a 0 -i 17 -k AGT
+ -t 1.073053588 -s 19 -d 0 -p ack -e 76 -c 2 -a 0 -i 17 -k RTR 
- -t 1.073053588 -s 19 -d 0 -p ack -e 76 -c 2 -a 0 -i 17 -k RTR
h -t 1.073053588 -s 19 -d 0 -p ack -e 76 -c 2 -a 0 -i 17 -k RTR
r -t 1.073343421 -s 0 -d -1 -p ACK -e 38 -c 2 -a 0 -i 0 -k MAC
+ -t 1.073593088 -s 4 -d -1 -p RTS -e 44 -c 2 -a 0 -i 0 -k MAC 
- -t 1.073593088 -s 4 -d -1 -p RTS -e 44 -c 2 -a 0 -i 0 -k MAC
h -t 1.073593088 -s 4 -d -1 -p RTS -e 44 -c 2 -a 0 -i 0 -k MAC
r -t 1.073945921 -s 15 -d -1 -p RTS -e 44 -c 2 -a 0 -i 0 -k MAC
+ -t 1.073955921 -s 15 -d -1 -p CTS -e 38 -c 2 -a 0 -i 0 -k MAC 
- -t 1.073955921 -s 15 -d -1 -p CTS -e 38 -c 2 -a 0 -i 0 -k MAC
h -t 1.073955921 -s 15 -d -1 -p CTS -e 38 -c 2 -a 0 -i 0 -k MAC
r -t 1.074260754 -s 4 -d -1 -p CTS -e 38 -c 2 -a 0 -i 0 -k MAC
+ -t 1.074270754 -s 4 -d 15 -p ack -e 118 -c 2 -a 0 -i 16 -k MAC 
- -t 1.074270754 -s 4 -d 15 -p ack -e 118 -c 2 -a 0 -i 16 -k MAC
h -t 1.074270754 -s 4 -d 15 -p ack -e 118 -c 2 -a 0 -i 16 -k MAC
r -t 1.075215588 -s 15 -d 15 -p ack -e 60 -c 2 -a 0 -i 16 -k MAC
+ -t 1.075225588 -s 15 -d -1 -p ACK -e 38 -c 2 -a 0 -i 0 -k MAC 
- -t 1.075225588 -s 15 -d -1 -p ACK -e 38 -c 2 -a 0 -i 0 -k MAC
h -t 1.075225588 -s 15 -d -1 -p ACK -e 38 -c 2 -a 0 -i 0 -k MAC
r -t 1.075240588 -s 15 -d 15 -p ack -e 40 -c 2 -a 0 -i 16 -k AGT
+ -t 1.075240588 -s 15 -d -1 -p tcp -e 1540 -c 2 -a 0 -i 18 -k AGT 
- -t 1.075240588 -s 15 -d -1 -p tcp -e 1540 -c 2 -a 0 -i 18 -k AGT
h -t 1.075240588 -s 15 -d -1 -p tcp -e 1540 -c 2 -a 0 -i 18 -k AGT
+ -t 1.075240588 -s 15 -d -1 -p tcp -e 1540 -c 2 -a 0 -i 19 -k AGT 
- -t 1.075240588 -s 15 -d -1 -p tcp -e 1540 -c 2 -a 0 -i 19 -k AGT
h -t 1.075240588 -s 15 -d -1 -p tcp -e 1540 -c 2 -a 0 -i 19 -k AGT
+ -t 1.075240588 -s 15 -d 4 -p tcp -e 1560 -c 2 -a 0 -i 18 -k RTR 
- -t 1.075240588 -s 15 -d 4 -p tcp -e 1560 -c 2 -a 0 -i 18 -k RTR
h -t 1.075240588 -s 15 -d 4 -p tcp -e 1560 -c 2 -a 0 -i 18 -k RTR
+ -t 1.075240588 -s 15 -d 4 -p tcp -e 1560 -c 2 -a 0 -i 19 -k RTR 
- -t 1.075240588 -s 15 -d 4 -p tcp -e 1560 -c 2 -a 0 -i 19 -k RTR
h -t 1.075240588 -s 15 -d 4 -p tcp -e 1560 -c 2 -a 0 -i 19 -k RTR
r -t 1.075530421 -s 4 -d -1 -p ACK -e 38 -c 2 -a 0 -i 0 -k MAC
+ -t 1.075700254 -s 19 -d -1 -p RTS -e 44 -c 2 -a 0 -i 0 -k MAC 
- -t 1.075700254 -s 19 -d -1 -p RTS -e 44 -c 2 -a 0 -i 0 -k MAC
h -t 1.075700254 -s 19 -d -1 -p RTS -e 44 -c 2 -a 0 -i 0 -k MAC
r -t 1.076053088 -s 0 -d -1 -p RTS -e 44 -c 2 -a 0 -i 0 -k MAC
+ -t 1.076063088 -s 0 -d -1 -p CTS -e 38 -c 2 -a 0 -i 0 -k MAC 
- -t 1.076063088 -s 0 -d -1 -p CTS -e 38 -c 2 -a 0 -i 0 -k MAC
h -t 1.076063088 -s 0 -d -1 -p CTS -e 38 -c 2 -a 0 -i 0 -k MAC
r -t 1.076367921 -s 19 -d -1 -p CTS -e 38 -c 2 -a 0 -i 0 -k MAC
+ -t 1.076377921 -s 19 -d 0 -p ack -e 134 -c 2 -a 0 -i 17 -k MAC 
- -t 1.076377921 -s 19 -d 0 -p ack -e 134 -c 2 -a 0 -i 17 -k MAC
h -t 1.076377921 -s 19 -d 0 -p ack -e 134 -c 2 -a 0 -i 17 -k MAC
r -t 1.077450754 -s 0 -d 0 -p ack -e 76 -c 2 -a 0 -i 17 -k MAC
+ -t 1.077460754 -s 0 -d -1 -p ACK -e 38 -c 2 -a 0 -i 0 -k MAC 
- -t 1.077460754 -s 0 -d -1 -p ACK -e 38 -c 2 -a 0 -i 0 -k MAC
h -t 1.077460754 -s 0 -d -1 -p ACK -e 38 -c 2 -a 0 -i 0 -k MAC
r -t 1.077475754 -s 0 -d 0 -p ack -e 40 -c 2 -a 0 -i 17 -k AGT
+ -t 1.077475754 -s 0 -d -1 -p tcp -e 1540 -c 2 -a 0 -i 20 -k AGT 
- -t 1.077475754 -s 0 -d -1 -p tcp -e 1540 -c 2 -a 0 -i 20 -k AGT
h -t 1.077475754 -s 0 -d -1 -p tcp -e 1540 -c 2 -a 0 -i 20 -k AGT
+ -t 1.077475754 -s 0 -d -1 -p tcp -e 1540 -c 2 -a 0 -i 21 -k AGT 
- -t 1.077475754 -s 0 -d -1 -p tcp -e 1540 -c 2 -a 0 -i 21 -k AGT
h -t 1.077475754 -s 0 -d -1 -p tcp -e 1540 -c 2 -a 0 -i 21 -k AGT
+ -t 1.077475754 -s 0 -d 19 -p tcp -e 1576 -c 2 -a 0 -i 20 -k RTR 
- -t 1.077475754 -s 0 -d 19 -p tcp -e 1576 -c 2 -a 0 -i 20 -k RTR
h -t 1.077475754 -s 0 -d 19 -p tcp -e 1576 -c 2 -a 0 -i 20 -k RTR
+ -t 1.077475754 -s 0 -d 19 -p tcp -e 1576 -c 2 -a 0 -i 21 -k RTR 
- -t 1.077475754 -s 0 -d 19 -p tcp -e 1576 -c 2 -a 0 -i 21 -k RTR
h -t 1.077475754 -s 0 -d 19 -p tcp -e 1576 -c 2 -a 0 -i 21 -k RTR
r -t 1.077765588 -s 19 -d -1 -p ACK -e 38 -c 2 -a 0 -i 0 -k MAC
+ -t 1.077855254 -s 15 -d -1 -p RTS -e 44 -c 2 -a 0 -i 0 -k MAC 
- -t 1.077855254 -s 15 -d -1 -p RTS -e 44 -c 2 -a 0 -i 0 -k MAC
h -t 1.077855254 -s 15 -d -1 -p RTS -e 44 -c 2 -a 0 -i 0 -k MAC
r -t 1.078208088 -s 4 -d -1 -p RTS -e 44 -c 2 -a 0 -i 0 -k MAC
+ -t 1.078218088 -s 4 -d -1 -p CTS -e 38 -c 2 -a 0 -i 0 -k MAC 
- -t 1.078218088 -s 4 -d -1 -p CTS -e 38 -c 2 -a 0 -i 0 -k MAC
h -t 1.078218088 -s 4 -d -1 -p CTS -e 38 -c 2 -a 0 -i 0 -k MAC
r -t 1.078522921 -s 15 -d -1 -p CTS -e 38 -c 2 -a 0 -i 0 -k MAC
+ -t 1.078532921 -s 15 -d 4 -p tcp -e 1618 -c 2 -a 0 -i 12 -k MAC 
- -t 1.078532921 -s 15 -d 4 -p tcp -e 1618 -c 2 -a 0 -i 12 -k MAC
h -t 1.078532921 -s 15 -d 4 -p tcp -e 1618 -c 2 -a 0 -i 12 -k MAC