Sconfig 0.00000 tap: on snoop: rts? on errs? on
Sconfig 0.00000 salvage: on !bd replies? on
Sconfig 0.00000 grat error: on grat reply: on
Sconfig 0.00000 $reply for props: on ring 0 search: on
Sconfig 0.00000 using MOBICACHE
s -t 1.000000000 -Hs 0 -Hd -2 -Ni 0 -Nx 322.00 -Ny 425.00 -Nz 0.00 -Ne -1.000000 -Nl AGT -Nw --- -Ma 0 -Md 0 -Ms 0 -Mt 0 -Is 0.0 -Id 19.0 -It tcp -Il 40 -If 0 -Ii 0 -Iv 32 -Pn tcp -Ps 0 -Pa 0 -Pf 0 -Po 0 
r -t 1.000000000 -Hs 0 -Hd -2 -Ni 0 -Nx 322.00 -Ny 425.00 -Nz 0.00 -Ne -1.000000 -Nl RTR -Nw --- -Ma 0 -Md 0 -Ms 0 -Mt 0 -Is 0.0 -Id 19.0 -It tcp -Il 40 -If 0 -Ii 0 -Iv 32 -Pn tcp -Ps 0 -Pa 0 -Pf 0 -Po 0 
s -t 1.000000000 -Hs 15 -Hd -2 -Ni 15 -Nx 322.00 -Ny 275.00 -Nz 0.00 -Ne -1.000000 -Nl AGT -Nw --- -Ma 0 -Md 0 -Ms 0 -Mt 0 -Is 15.0 -Id 4.0 -It tcp -Il 40 -If 0 -Ii 2 -Iv 32 -Pn tcp -Ps 0 -Pa 0 -Pf 0 -Po 0 
r -t 1.000000000 -Hs 15 -Hd -2 -Ni 15 -Nx 322.00 -Ny 275.00 -Nz 0.00 -Ne -1.000000 -Nl RTR -Nw --- -Ma 0 -Md 0 -Ms 0 -Mt 0 -Is 15.0 -Id 4.0 -It tcp -Il 40 -If 0 -Ii 2 -Iv 32 -Pn tcp -Ps 0 -Pa 0 -Pf 0 -Po 0 
s -t 1.005822648 -Hs 15 -Hd -1 -Ni 15 -Nx 322.00 -Ny 275.00 -Nz 0.00 -Ne -1.000000 -Nl RTR -Nw --- -Ma 0 -Md 0 -Ms 0 -Mt 0 -Is 15.255 -Id 4.255 -It DSR -Il 32 -If 0 -Ii 3 -Iv 32 -P dsr -Ph 1 -Pq 1 -Ps 1 -Pp 0 -Pn 1 -Pl 0 -Pe 0->0 -Pw 0 -Pm 0 -Pc 0 -Pb 0->0 
s -t 1.006337648 -Hs 15 -Hd -1 -Ni 15 -Nx 322.00 -Ny 275.00 -Nz 0.00 -Ne -1.000000 -Nl MAC -Nw --- -Ma 0 -Md ffffffff -Ms f -Mt 800 -Is 15.255 -Id 4.255 -It DSR -Il 90 -If 0 -Ii 3 -Iv 32 -P dsr -Ph 1 -Pq 1 -Ps 1 -Pp 0 -Pn 1 -Pl 0 -Pe 0->0 -Pw 0 -Pm 0 -Pc 0 -Pb 0->0 
r -t 1.007057814 -Hs 10 -Hd -1 -Ni 10 -Nx 322.00 -Ny 325.00 -Nz 0.00 -Ne -1.000000 -Nl MAC -Nw --- -Ma 0 -Md ffffffff -Ms f -Mt 800 -Is 15.255 -Id 4.255 -It DSR -Il 32 -If 0 -Ii 3 -Iv 32 -P dsr -Ph 1 -Pq 1 -Ps 1 -Pp 0 -Pn 1 -Pl 0 -Pe 0->0 -Pw 0 -Pm 0 -Pc 0 -Pb 0->0 
r -t 1.007057814 -Hs 16 -Hd -1 -Ni 16 -Nx 372.00 -Ny 275.00 -Nz 0.00 -Ne -1.000000 -Nl MAC -Nw --- -Ma 0 -Md ffffffff -Ms f -Mt 800 -Is 15.255 -Id 4.255 -It DSR -Il 32 -If 0 -Ii 3 -Iv 32 -P dsr -Ph 1 -Pq 1 -Ps 1 -Pp 0 -Pn 1 -Pl 0 -Pe 0->0 -Pw 0 -Pm 0 -Pc 0 -Pb 0->0 
r -t 1.007057883 -Hs 11 -Hd -1 -Ni 11 -Nx 372.00 -Ny 325.00 -Nz 0.00 -Ne -1.000000 -Nl MAC -Nw --- -Ma 0 -Md ffffffff -Ms f -Mt 800 -Is 15.255 -Id 4.255 -It DSR -Il 32 -If 0 -Ii 3 -Iv 32 -P dsr -Ph 1 -Pq 1 -Ps 1 -Pp 0 -Pn 1 -Pl 0 -Pe 0->0 -Pw 0 -Pm 0 -Pc 0 -Pb 0->0 
r -t 1.007057981 -Hs 5 -Hd -1 -Ni 5 -Nx 322.00 -Ny 375.00 -Nz 0.00 -Ne -1.000000 -Nl MAC -Nw --- -Ma 0 -Md ffffffff -Ms f -Mt 800 -Is 15.255 -Id 4.255 -It DSR -Il 32 -If 0 -Ii 3 -Iv 32 -P dsr -Ph 1 -Pq 1 -Ps 1 -Pp 0 -Pn 1 -Pl 0 -Pe 0->0 -Pw 0 -Pm 0 -Pc 0 -Pb 0->0 
r -t 1.007057981 -Hs 17 -Hd -1 -Ni 17 -Nx 422.00 -Ny 275.00 -Nz 0.00 -Ne -1.000000 -Nl MAC -Nw --- -Ma 0 -Md ffffffff -Ms f -Mt 800 -Is 15.255 -Id 4.255 -It DSR -Il 32 -If 0 -Ii 3 -Iv 32 -P dsr -Ph 1 -Pq 1 -Ps 1 -Pp 0 -Pn 1 -Pl 0 -Pe 0->0 -Pw 0 -Pm 0 -Pc 0 -Pb 0->0 
r -t 1.007058020 -Hs 6 -Hd -1 -Ni 6 -Nx 372.00 -Ny 375.00 -Nz 0.00 -Ne -1.000000 -Nl MAC -Nw --- -Ma 0 -Md ffffffff -Ms f -Mt 800 -Is 15.255 -Id 4.255 -It DSR -Il 32 -If 0 -Ii 3 -Iv 32 -P dsr -Ph 1 -Pq 1 -Ps 1 -Pp 0 -Pn 1 -Pl 0 -Pe 0->0 -Pw 0 -Pm 0 -Pc 0 -Pb 0->0 
r -t 1.007058020 -Hs 12 -Hd -1 -Ni 12 -Nx 422.00 -Ny 325.00 -Nz 0.00 -Ne -1.000000 -Nl MAC -Nw --- -Ma 0 -Md ffffffff -Ms f -Mt 800 -Is 15.255 -Id 4.255 -It DSR -Il 32 -If 0 -Ii 3 -Iv 32 -P dsr -Ph 1 -Pq 1 -Ps 1 -Pp 0 -Pn 1 -Pl 0 -Pe 0->0 -Pw 0 -Pm 0 -Pc 0 -Pb 0->0 
r -t 1.007058119 -Hs 7 -Hd -1 -Ni 7 -Nx 422.00 -Ny 375.00 -Nz 0.00 -Ne -1.000000 -Nl MAC -Nw --- -Ma 0 -Md ffffffff -Ms f -Mt 800 -Is 15.255 -Id 4.255 -It DSR -Il 32 -If 0 -Ii 3 -Iv 32 -P dsr -Ph 1 -Pq 1 -Ps 1 -Pp 0 -Pn 1 -Pl 0 -Pe 0->0 -Pw 0 -Pm 0 -Pc 0 -Pb 0->0 
r -t 1.007058148 -Hs 0 -Hd -1 -Ni 0 -Nx 322.00 -Ny 425.00 -Nz 0.00 -Ne -1.000000 -Nl MAC -Nw --- -Ma 0 -Md ffffffff -Ms f -Mt 800 -Is 15.255 -Id 4.255 -It DSR -Il 32 -If 0 -Ii 3 -Iv 32 -P dsr -Ph 1 -Pq 1 -Ps 1 -Pp 0 -Pn 1 -Pl 0 -Pe 0->0 -Pw 0 -Pm 0 -Pc 0 -Pb 0->0 
r -t 1.007058148 -Hs 18 -Hd -1 -Ni 18 -Nx 472.00 -Ny 275.00 -Nz 0.00 -Ne -1.000000 -Nl MAC -Nw --- -Ma 0 -Md ffffffff -Ms f -Mt 800 -Is 15.255 -Id 4.255 -It DSR -Il 32 -If 0 -Ii 3 -Iv 32 -P dsr -Ph 1 -Pq 1 -Ps 1 -Pp 0 -Pn 1 -Pl 0 -Pe 0->0 -Pw 0 -Pm 0 -Pc 0 -Pb 0->0 
r -t 1.007058175 -Hs 1 -Hd -1 -Ni 1 -Nx 372.00 -Ny 425.00 -Nz 0.00 -Ne -1.000000 -Nl MAC -Nw --- -Ma 0 -Md ffffffff -Ms f -Mt 800 -Is 15.255 -Id 4.255 -It DSR -Il 32 -If 0 -Ii 3 -Iv 32 -P dsr -Ph 1 -Pq 1 -Ps 1 -Pp 0 -Pn 1 -Pl 0 -Pe 0->0 -Pw 0 -Pm 0 -Pc 0 -Pb 0->0 
r -t 1.007058175 -Hs 13 -Hd -1 -Ni 13 -Nx 472.00 -Ny 325.00 -Nz 0.00 -Ne -1.000000 -Nl MAC -Nw --- -Ma 0 -Md ffffffff -Ms f -Mt 800 -Is 15.255 -Id 4.255 -It DSR -Il 32 -If 0 -Ii 3 -Iv 32 -P dsr -Ph 1 -Pq 1 -Ps 1 -Pp 0 -Pn 1 -Pl 0 -Pe 0->0 -Pw 0 -Pm 0 -Pc 0 -Pb 0->0 
r -t 1.007058249 -Hs 2 -Hd -1 -Ni 2 -Nx 422.00 -Ny 425.00 -Nz 0.00 -Ne -1.000000 -Nl MAC -Nw --- -Ma 0 -Md ffffffff -Ms f -Mt 800 -Is 15.255 -Id 4.255 -It DSR -Il 32 -If 0 -Ii 3 -Iv 32 -P dsr -Ph 1 -Pq 1 -Ps 1 -Pp 0 -Pn 1 -Pl 0 -Pe 0->0 -Pw 0 -Pm 0 -Pc 0 -Pb 0->0 
r -t 1.007058249 -Hs 8 -Hd -1 -Ni 8 -Nx 472.00 -Ny 375.00 -Nz 0.00 -Ne -1.000000 -Nl MAC -Nw --- -Ma 0 -Md ffffffff -Ms f -Mt 800 -Is 15.255 -Id 4.255 -It DSR -Il 32 -If 0 -Ii 3 -Iv 32 -P dsr -Ph 1 -Pq 1 -Ps 1 -Pp 0 -Pn 1 -Pl 0 -Pe 0->0 -Pw 0 -Pm 0 -Pc 0 -Pb 0->0 
r -t 1.007058314 -Hs 19 -Hd -1 -Ni 19 -Nx 522.00 -Ny 275.00 -Nz 0.00 -Ne -1.000000 -Nl MAC -Nw --- -Ma 0 -Md ffffffff -Ms f -Mt 800 -Is 15.255 -Id 4.255 -It DSR -Il 32 -If 0 -Ii 3 -Iv 32 -P dsr -Ph 1 -Pq 1 -Ps 1 -Pp 0 -Pn 1 -Pl 0 -Pe 0->0 -Pw 0 -Pm 0 -Pc 0 -Pb 0->0 
r -t 1.007058335 -Hs 14 -Hd -1 -Ni 14 -Nx 522.00 -Ny 325.00 -Nz 0.00 -Ne -1.000000 -Nl MAC -Nw --- -Ma 0 -Md ffffffff -Ms f -Mt 800 -Is 15.255 -Id 4.255 -It DSR -Il 32 -If 0 -Ii 3 -Iv 32 -P dsr -Ph 1 -Pq 1 -Ps 1 -Pp 0 -Pn 1 -Pl 0 -Pe 0->0 -Pw 0 -Pm 0 -Pc 0 -Pb 0->0 
r -t 1.007058355 -Hs 3 -Hd -1 -Ni 3 -Nx 472.00 -Ny 425.00 -Nz 0.00 -Ne -1.000000 -Nl MAC -Nw --- -Ma 0 -Md ffffffff -Ms f -Mt 800 -Is 15.255 -Id 4.255 -It DSR -Il 32 -If 0 -Ii 3 -Iv 32 -P dsr -Ph 1 -Pq 1 -Ps 1 -Pp 0 -Pn 1 -Pl 0 -Pe 0->0 -Pw 0 -Pm 0 -Pc 0 -Pb 0->0 
r -t 1.007058393 -Hs 9 -Hd -1 -Ni 9 -Nx 522.00 -Ny 375.00 -Nz 0.00 -Ne -1.000000 -Nl MAC -Nw --- -Ma 0 -Md ffffffff -Ms f -Mt 800 -Is 15.255 -Id 4.255 -It DSR -Il 32 -If 0 -Ii 3 -Iv 32 -P dsr -Ph 1 -Pq 1 -Ps 1 -Pp 0 -Pn 1 -Pl 0 -Pe 0->0 -Pw 0 -Pm 0 -Pc 0 -Pb 0->0 
r -t 1.007058481 -Hs 4 -Hd -1 -Ni 4 -Nx 522.00 -Ny 425.00 -Nz 0.00 -Ne -1.000000 -Nl MAC -Nw --- -Ma 0 -Md ffffffff -Ms f -Mt 800 -Is 15.255 -Id 4.255 -It DSR -Il 32 -If 0 -Ii 3 -Iv 32 -P dsr -Ph 1 -Pq 1 -Ps 1 -Pp 0 -Pn 1 -Pl 0 -Pe 0->0 -Pw 0 -Pm 0 -Pc 0 -Pb 0->0 
r -t 1.007082814 -Hs 10 -Hd -1 -Ni 10 -Nx 322.00 -Ny 325.00 -Nz 0.00 -Ne -1.000000 -Nl RTR -Nw --- -Ma 0 -Md ffffffff -Ms f -Mt 800 -Is 15.255 -Id 4.255 -It DSR -Il 32 -If 0 -Ii 3 -Iv 32 -P dsr -Ph 1 -Pq 1 -Ps 1 -Pp 0 -Pn 1 -Pl 0 -Pe 0->0 -Pw 0 -Pm 0 -Pc 0 -Pb 0->0 
r -t 1.007082814 -Hs 16 -Hd -1 -Ni 16 -Nx 372.00 -Ny 275.00 -Nz 0.00 -Ne -1.000000 -Nl RTR -Nw --- -Ma 0 -Md ffffffff -Ms f -Mt 800 -Is 15.255 -Id 4.255 -It DSR -Il 32 -If 0 -Ii 3 -Iv 32 -P dsr -Ph 1 -Pq 1 -Ps 1 -Pp 0 -Pn 1 -Pl 0 -Pe 0->0 -Pw 0 -Pm 0 -Pc 0 -Pb 0->0 
r -t 1.007082883 -Hs 11 -Hd -1 -Ni 11 -Nx 372.00 -Ny 325.00 -Nz 0.00 -Ne -1.000000 -Nl RTR -Nw --- -Ma 0 -Md ffffffff -Ms f -Mt 800 -Is 15.255 -Id 4.255 -It DSR -Il 32 -If 0 -Ii 3 -Iv 32 -P dsr -Ph 1 -Pq 1 -Ps 1 -Pp 0 -Pn 1 -Pl 0 -Pe 0->0 -Pw 0 -Pm 0 -Pc 0 -Pb 0->0 
r -t 1.007082981 -Hs 5 -Hd -1 -Ni 5 -Nx 322.00 -Ny 375.00 -Nz 0.00 -Ne -1.000000 -Nl RTR -Nw --- -Ma 0 -Md ffffffff -Ms f -Mt 800 -Is 15.255 -Id 4.255 -It DSR -Il 32 -If 0 -Ii 3 -Iv 32 -P dsr -Ph 1 -Pq 1 -Ps 1 -Pp 0 -Pn 1 -Pl 0 -Pe 0->0 -Pw 0 -Pm 0 -Pc 0 -Pb 0->0 
r -t 1.007082981 -Hs 17 -Hd -1 -Ni 17 -Nx 422.00 -Ny 275.00 -Nz 0.00 -Ne -1.000000 -Nl RTR -Nw --- -Ma 0 -Md ffffffff -Ms f -Mt 800 -Is 15.255 -Id 4.255 -It DSR -Il 32 -If 0 -Ii 3 -Iv 32 -P dsr -Ph 1 -Pq 1 -Ps 1 -Pp 0 -Pn 1 -Pl 0 -Pe 0->0 -Pw 0 -Pm 0 -Pc 0 -Pb 0->0 
r -t 1.007083020 -Hs 6 -Hd -1 -Ni 6 -Nx 372.00 -Ny 375.00 -Nz 0.00 -Ne -1.000000 -Nl RTR -Nw --- -Ma 0 -Md ffffffff -Ms f -Mt 800 -Is 15.255 -Id 4.255 -It DSR -Il 32 -If 0 -Ii 3 -Iv 32 -P dsr -Ph 1 -Pq 1 -Ps 1 -Pp 0 -Pn 1 -Pl 0 -Pe 0->0 -Pw 0 -Pm 0 -Pc 0 -Pb 0->0 
r -t 1.007083020 -Hs 12 -Hd -1 -Ni 12 -Nx 422.00 -Ny 325.00 -Nz 0.00 -Ne -1.000000 -Nl RTR -Nw --- -Ma 0 -Md ffffffff -Ms f -Mt 800 -Is 15.255 -Id 4.255 -It DSR -Il 32 -If 0 -Ii 3 -Iv 32 -P dsr -Ph 1 -Pq 1 -Ps 1 -Pp 0 -Pn 1 -Pl 0 -Pe 0->0 -Pw 0 -Pm 0 -Pc 0 -Pb 0->0 
r -t 1.007083119 -Hs 7 -Hd -1 -Ni 7 -Nx 422.00 -Ny 375.00 -Nz 0.00 -Ne -1.000000 -Nl RTR -Nw --- -Ma 0 -Md ffffffff -Ms f -Mt 800 -Is 15.255 -Id 4.255 -It DSR -Il 32 -If 0 -Ii 3 -Iv 32 -P dsr -Ph 1 -Pq 1 -Ps 1 -Pp 0 -Pn 1 -Pl 0 -Pe 0->0 -Pw 0 -Pm 0 -Pc 0 -Pb 0->0 
r -t 1.007083148 -Hs 0 -Hd -1 -Ni 0 -Nx 322.00 -Ny 425.00 -Nz 0.00 -Ne -1.000000 -Nl RTR -Nw --- -Ma 0 -Md ffffffff -Ms f -Mt 800 -Is 15.255 -Id 4.255 -It DSR -Il 32 -If 0 -Ii 3 -Iv 32 -P dsr -Ph 1 -Pq 1 -Ps 1 -Pp 0 -Pn 1 -Pl 0 -Pe 0->0 -Pw 0 -Pm 0 -Pc 0 -Pb 0->0 
r -t 1.007083148 -Hs 18 -Hd -1 -Ni 18 -Nx 472.00 -Ny 275.00 -Nz 0.00 -Ne -1.000000 -Nl RTR -Nw --- -Ma 0 -Md ffffffff -Ms f -Mt 800 -Is 15.255 -Id 4.255 -It DSR -Il 32 -If 0 -Ii 3 -Iv 32 -P dsr -Ph 1 -Pq 1 -Ps 1 -Pp 0 -Pn 1 -Pl 0 -Pe 0->0 -Pw 0 -Pm 0 -Pc 0 -Pb 0->0 
r -t 1.007083175 -Hs 1 -Hd -1 -Ni 1 -Nx 372.00 -Ny 425.00 -Nz 0.00 -Ne -1.000000 -Nl RTR -Nw --- -Ma 0 -Md ffffffff -Ms f -Mt 800 -Is 15.255 -Id 4.255 -It DSR -Il 32 -If 0 -Ii 3 -Iv 32 -P dsr -Ph 1 -Pq 1 -Ps 1 -Pp 0 -Pn 1 -Pl 0 -Pe 0->0 -Pw 0 -Pm 0 -Pc 0 -Pb 0->0 
r -t 1.007083175 -Hs 13 -Hd -1 -Ni 13 -Nx 472.00 -Ny 325.00 -Nz 0.00 -Ne -1.000000 -Nl RTR -Nw --- -Ma 0 -Md ffffffff -Ms f -Mt 800 -Is 15.255 -Id 4.255 -It DSR -Il 32 -If 0 -Ii 3 -Iv 32 -P dsr -Ph 1 -Pq 1 -Ps 1 -Pp 0 -Pn 1 -Pl 0 -Pe 0->0 -Pw 0 -Pm 0 -Pc 0 -Pb 0->0 
r -t 1.007083249 -Hs 2 -Hd -1 -Ni 2 -Nx 422.00 -Ny 425.00 -Nz 0.00 -Ne -1.000000 -Nl RTR -Nw --- -Ma 0 -Md ffffffff -Ms f -Mt 800 -Is 15.255 -Id 4.255 -It DSR -Il 32 -If 0 -Ii 3 -Iv 32 -P dsr -Ph 1 -Pq 1 -Ps 1 -Pp 0 -Pn 1 -Pl 0 -Pe 0->0 -Pw 0 -Pm 0 -Pc 0 -Pb 0->0 
r -t 1.007083249 -Hs 8 -Hd -1 -Ni 8 -Nx 472.00 -Ny 375.00 -Nz 0.00 -Ne -1.000000 -Nl RTR -Nw --- -Ma 0 -Md ffffffff -Ms f -Mt 800 -Is 15.255 -Id 4.255 -It DSR -Il 32 -If 0 -Ii 3 -Iv 32 -P dsr -Ph 1 -Pq 1 -Ps 1 -Pp 0 -Pn 1 -Pl 0 -Pe 0->0 -Pw 0 -Pm 0 -Pc 0 -Pb 0->0 
r -t 1.007083314 -Hs 19 -Hd -1 -Ni 19 -Nx 522.00 -Ny 275.00 -Nz 0.00 -Ne -1.000000 -Nl RTR -Nw --- -Ma 0 -Md ffffffff -Ms f -Mt 800 -Is 15.255 -Id 4.255 -It DSR -Il 32 -If 0 -Ii 3 -Iv 32 -P dsr -Ph 1 -Pq 1 -Ps 1 -Pp 0 -Pn 1 -Pl 0 -Pe 0->0 -Pw 0 -Pm 0 -Pc 0 -Pb 0->0 
r -t 1.007083335 -Hs 14 -Hd -1 -Ni 14 -Nx 522.00 -Ny 325.00 -Nz 0.00 -Ne -1.000000 -Nl RTR -Nw --- -Ma 0 -Md ffffffff -Ms f -Mt 800 -Is 15.255 -Id 4.255 -It DSR -Il 32 -If 0 -Ii 3 -Iv 32 -P dsr -Ph 1 -Pq 1 -Ps 1 -Pp 0 -Pn 1 -Pl 0 -Pe 0->0 -Pw 0 -Pm 0 -Pc 0 -Pb 0->0 
r -t 1.007083355 -Hs 3 -Hd -1 -Ni 3 -Nx 472.00 -Ny 425.00 -Nz 0.00 -Ne -1.000000 -Nl RTR -Nw --- -Ma 0 -Md ffffffff -Ms f -Mt 800 -Is 15.255 -Id 4.255 -It DSR -Il 32 -If 0 -Ii 3 -Iv 32 -P dsr -Ph 1 -Pq 1 -Ps 1 -Pp 0 -Pn 1 -Pl 0 -Pe 0->0 -Pw 0 -Pm 0 -Pc 0 -Pb 0->0 
r -t 1.007083393 -Hs 9 -Hd -1 -Ni 9 -Nx 522.00 -Ny 375.00 -Nz 0.00 -Ne -1.000000 -Nl RTR -Nw --- -Ma 0 -Md ffffffff -Ms f -Mt 800 -Is 15.255 -Id 4.255 -It DSR -Il 32 -If 0 -Ii 3 -Iv 32 -P dsr -Ph 1 -Pq 1 -Ps 1 -Pp 0 -Pn 1 -Pl 0 -Pe 0->0 -Pw 0 -Pm 0 -Pc 0 -Pb 0->0 
r -t 1.007083481 -Hs 4 -Hd -1 -Ni 4 -Nx 522.00 -Ny 425.00 -Nz 0.00 -Ne -1.000000 -Nl RTR -Nw --- -Ma 0 -Md ffffffff -Ms f -Mt 800 -Is 15.255 -Id 4.255 -It DSR -Il 32 -If 0 -Ii 3 -Iv 32 -P dsr -Ph 1 -Pq 1 -Ps 1 -Pp 0 -Pn 1 -Pl 0 -Pe 0->0 -Pw 0 -Pm 0 -Pc 0 -Pb 0->0 
s -t 1.007774088 -Hs 4 -Hd 15 -Ni 4 -Nx 522.00 -Ny 425.00 -Nz 0.00 -Ne -1.000000 -Nl RTR -Nw --- -Ma 0 -Md 0 -Ms 0 -Mt 0 -Is 4.255 -Id 15.255 -It DSR -Il 44 -If 0 -Ii 4 -Iv 254 -P dsr -Ph 2 -Pq 0 -Ps 1 -Pp 1 -Pn 1 -Pl 2 -Pe 15->4 -Pw 0 -Pm 0 -Pc 0 -Pb 0->0 
s -t 1.008369088 -Hs 4 -Hd -2 -Ni 4 -Nx 522.00 -Ny 425.00 -Nz 0.00 -Ne -1.000000 -Nl MAC -Nw --- -Ma 0 -Md ffffffff -Ms 4 -Mt 806 -P arp -Po REQUEST -Pms 4 -Ps 4 -Pmd 0 -Pd 15 
s -t 1.008743815 -Hs 0 -Hd -1 -Ni 0 -Nx 322.00 -Ny 425.00 -Nz 0.00 -Ne -1.000000 -Nl RTR -Nw --- -Ma 0 -Md 0 -Ms 0 -Mt 0 -Is 0.255 -Id 19.255 -It DSR -Il 32 -If 0 -Ii 1 -Iv 32 -P dsr -Ph 1 -Pq 1 -Ps 1 -Pp 0 -Pn 1 -Pl 0 -Pe 0->0 -Pw 0 -Pm 0 -Pc 0 -Pb 0->0 
r -t 1.009057254 -Hs 3 -Hd -2 -Ni 3 -Nx 472.00 -Ny 425.00 -Nz 0.00 -Ne -1.000000 -Nl MAC -Nw --- -Ma 0 -Md ffffffff -Ms 4 -Mt 806 -P arp -Po REQUEST -Pms 4 -Ps 4 -Pmd 0 -Pd 15 
r -t 1.009057254 -Hs 9 -Hd -2 -Ni 9 -Nx 522.00 -Ny 375.00 -Nz 0.00 -Ne -1.000000 -Nl MAC -Nw --- -Ma 0 -Md ffffffff -Ms 4 -Mt 806 -P arp -Po REQUEST -Pms 4 -Ps 4 -Pmd 0 -Pd 15 
r -t 1.009057323 -Hs 8 -Hd -2 -Ni 8 -Nx 472.00 -Ny 375.00 -Nz 0.00 -Ne -1.000000 -Nl MAC -Nw --- -Ma 0 -Md ffffffff -Ms 4 -Mt 806 -P arp -Po REQUEST -Pms 4 -Ps 4 -Pmd 0 -Pd 15 
r -t 1.009057421 -Hs 2 -Hd -2 -Ni 2 -Nx 422.00 -Ny 425.00 -Nz 0.00 -Ne -1.000000 -Nl MAC -Nw --- -Ma 0 -Md ffffffff -Ms 4 -Mt 806 -P arp -Po REQUEST -Pms 4 -Ps 4 -Pmd 0 -Pd 15 
r -t 1.009057421 -Hs 14 -Hd -2 -Ni 14 -Nx 522.00 -Ny 325.00 -Nz 0.00 -Ne -1.000000 -Nl MAC -Nw --- -Ma 0 -Md ffffffff -Ms 4 -Mt 806 -P arp -Po REQUEST -Pms 4 -Ps 4 -Pmd 0 -Pd 15 
r -t 1.009057460 -Hs 13 -Hd -2 -Ni 13 -Nx 472.00 -Ny 325.00 -Nz 0.00 -Ne -1.000000 -Nl MAC -Nw --- -Ma 0 -Md ffffffff -Ms 4 -Mt 806 -P arp -Po REQUEST -Pms 4 -Ps 4 -Pmd 0 -Pd 15 
r -t 1.009057460 -Hs 7 -Hd -2 -Ni 7 -Nx 422.00 -Ny 375.00 -Nz 0.00 -Ne -1.000000 -Nl MAC -Nw --- -Ma 0 -Md ffffffff -Ms 4 -Mt 806 -P arp -Po REQUEST -Pms 4 -Ps 4 -Pmd 0 -Pd 15 
r -t 1.009057559 -Hs 12 -Hd -2 -Ni 12 -Nx 422.00 -Ny 325.00 -Nz 0.00 -Ne -1.000000 -Nl MAC -Nw --- -Ma 0 -Md ffffffff -Ms 4 -Mt 806 -P arp -Po REQUEST -Pms 4 -Ps 4 -Pmd 0 -Pd 15 
r -t 1.009057588 -Hs 1 -Hd -2 -Ni 1 -Nx 372.00 -Ny 425.00 -Nz 0.00 -Ne -1.000000 -Nl MAC -Nw --- -Ma 0 -Md ffffffff -Ms 4 -Mt 806 -P arp -Po REQUEST -Pms 4 -Ps 4 -Pmd 0 -Pd 15 
r -t 1.009057588 -Hs 19 -Hd -2 -Ni 19 -Nx 522.00 -Ny 275.00 -Nz 0.00 -Ne -1.000000 -Nl MAC -Nw --- -Ma 0 -Md ffffffff -Ms 4 -Mt 806 -P arp -Po REQUEST -Pms 4 -Ps 4 -Pmd 0 -Pd 15 
r -t 1.009057615 -Hs 18 -Hd -2 -Ni 18 -Nx 472.00 -Ny 275.00 -Nz 0.00 -Ne -1.000000 -Nl MAC -Nw --- -Ma 0 -Md ffffffff -Ms 4 -Mt 806 -P arp -Po REQUEST -Pms 4 -Ps 4 -Pmd 0 -Pd 15 
r -t 1.009057615 -Hs 6 -Hd -2 -Ni 6 -Nx 372.00 -Ny 375.00 -Nz 0.00 -Ne -1.000000 -Nl MAC -Nw --- -Ma 0 -Md ffffffff -Ms 4 -Mt 806 -P arp -Po REQUEST -Pms 4 -Ps 4 -Pmd 0 -Pd 15 
r -t 1.009057688 -Hs 17 -Hd -2 -Ni 17 -Nx 422.00 -Ny 275.00 -Nz 0.00 -Ne -1.000000 -Nl MAC -Nw --- -Ma 0 -Md ffffffff -Ms 4 -Mt 806 -P arp -Po REQUEST -Pms 4 -Ps 4 -Pmd 0 -Pd 15 
r -t 1.009057688 -Hs 11 -Hd -2 -Ni 11 -Nx 372.00 -Ny 325.00 -Nz 0.00 -Ne -1.000000 -Nl MAC -Nw --- -Ma 0 -Md ffffffff -Ms 4 -Mt 806 -P arp -Po REQUEST -Pms 4 -Ps 4 -Pmd 0 -Pd 15 
r -t 1.009057754 -Hs 0 -Hd -2 -Ni 0 -Nx 322.00 -Ny 425.00 -Nz 0.00 -Ne -1.000000 -Nl MAC -Nw --- -Ma 0 -Md ffffffff -Ms 4 -Mt 806 -P arp -Po REQUEST -Pms 4 -Ps 4 -Pmd 0 -Pd 15 
r -t 1.009057775 -Hs 5 -Hd -2 -Ni 5 -Nx 322.00 -Ny 375.00 -Nz 0.00 -Ne -1.000000 -Nl MAC -Nw --- -Ma 0 -Md ffffffff -Ms 4 -Mt 806 -P arp -Po REQUEST -Pms 4 -Ps 4 -Pmd 0 -Pd 15 
r -t 1.009057795 -Hs 16 -Hd -2 -Ni 16 -Nx 372.00 -Ny 275.00 -Nz 0.00 -Ne -1.000000 -Nl MAC -Nw --- -Ma 0 -Md ffffffff -Ms 4 -Mt 806 -P arp -Po REQUEST -Pms 4 -Ps 4 -Pmd 0 -Pd 15 
r -t 1.009057833 -Hs 10 -Hd -2 -Ni 10 -Nx 322.00 -Ny 325.00 -Nz 0.00 -Ne -1.000000 -Nl MAC -Nw --- -Ma 0 -Md ffffffff -Ms 4 -Mt 806 -P arp -Po REQUEST -Pms 4 -Ps 4 -Pmd 0 -Pd 15 
r -t 1.009057921 -Hs 15 -Hd -2 -Ni 15 -Nx 322.00 -Ny 275.00 -Nz 0.00 -Ne -1.000000 -Nl MAC -Nw --- -Ma 0 -Md ffffffff -Ms 4 -Mt 806 -P arp -Po REQUEST -Pms 4 -Ps 4 -Pmd 0 -Pd 15 
s -t 1.009352921 -Hs 15 -Hd -2 -Ni 15 -Nx 322.00 -Ny 275.00 -Nz 0.00 -Ne -1.000000 -Nl MAC -Nw --- -Ma 52e -Md 4 -Ms f -Mt 0 
r -t 1.009705754 -Hs 4 -Hd -2 -Ni 4 -Nx 522.00 -Ny 425.00 -Nz 0.00 -Ne -1.000000 -Nl MAC -Nw --- -Ma 52e -Md 4 -Ms f -Mt 0 
s -t 1.009715754 -Hs 4 -Hd -2 -Ni 4 -Nx 522.00 -Ny 425.00 -Nz 0.00 -Ne -1.000000 -Nl MAC -Nw --- -Ma 3f4 -Md f -Ms 0 -Mt 0 
r -t 1.010020588 -Hs 15 -Hd -2 -Ni 15 -Nx 322.00 -Ny 275.00 -Nz 0.00 -Ne -1.000000 -Nl MAC -Nw --- -Ma 3f4 -Md f -Ms 0 -Mt 0 
s -t 1.010030588 -Hs 15 -Hd -2 -Ni 15 -Nx 322.00 -Ny 275.00 -Nz 0.00 -Ne -1.000000 -Nl MAC -Nw --- -Ma 13a -Md 4 -Ms f -Mt 806 -P arp -Po REPLY -Pms 15 -Ps 15 -Pmd 4 -Pd 4 
r -t 1.010719421 -Hs 4 -Hd -2 -Ni 4 -Nx 522.00 -Ny 425.00 -Nz 0.00 -Ne -1.000000 -Nl MAC -Nw --- -Ma 13a -Md 4 -Ms f -Mt 806 -P arp -Po REPLY -Pms 15 -Ps 15 -Pmd 4 -Pd 4 
s -t 1.010729421 -Hs 4 -Hd -2 -Ni 4 -Nx 522.00 -Ny 425.00 -Nz 0.00 -Ne -1.000000 -Nl MAC -Nw --- -Ma 0 -Md f -Ms 0 -Mt 0 
r -t 1.011034254 -Hs 15 -Hd -2 -Ni 15 -Nx 322.00 -Ny 275.00 -Nz 0.00 -Ne -1.000000 -Nl MAC -Nw --- -Ma 0 -Md f -Ms 0 -Mt 0 
s -t 1.011304088 -Hs 0 -Hd -1 -Ni 0 -Nx 322.00 -Ny 425.00 -Nz 0.00 -Ne -1.000000 -Nl MAC -Nw --- -Ma 0 -Md ffffffff -Ms 0 -Mt 800 -Is 0.255 -Id 19.255 -It DSR -Il 90 -If 0 -Ii 1 -Iv 32 -P dsr -Ph 1 -Pq 1 -Ps 1 -Pp 0 -Pn 1 -Pl 0 -Pe 0->0 -Pw 0 -Pm 0 -Pc 0 -Pb 0->0 
r -t 1.012024254 -Hs 5 -Hd -1 -Ni 5 -Nx 322.00 -Ny 375.00 -Nz 0.00 -Ne -1.000000 -Nl MAC -Nw --- -Ma 0 -Md ffffffff -Ms 0 -Mt 800 -Is 0.255 -Id 19.255 -It DSR -Il 32 -If 0 -Ii 1 -Iv 32 -P dsr -Ph 1 -Pq 1 -Ps 1 -Pp 0 -Pn 1 -Pl 0 -Pe 0->0 -Pw 0 -Pm 0 -Pc 0 -Pb 0->0 
r -t 1.012024254 -Hs 1 -Hd -1 -Ni 1 -Nx 372.00 -Ny 425.00 -Nz 0.00 -Ne -1.000000 -Nl MAC -Nw --- -Ma 0 -Md ffffffff -Ms 0 -Mt 800 -Is 0.255 -Id 19.255 -It DSR -Il 32 -If 0 -Ii 1 -Iv 32 -P dsr -Ph 1 -Pq 1 -Ps 1 -Pp 0 -Pn 1 -Pl 0 -Pe 0->0 -Pw 0 -Pm 0 -Pc 0 -Pb 0->0 
r -t 1.012024323 -Hs 6 -Hd -1 -Ni 6 -Nx 372.00 -Ny 375.00 -Nz 0.00 -Ne -1.000000 -Nl MAC -Nw --- -Ma 0 -Md ffffffff -Ms 0 -Mt 800 -Is 0.255 -Id 19.255 -It DSR -Il 32 -If 0 -Ii 1 -Iv 32 -P dsr -Ph 1 -Pq 1 -Ps 1 -Pp 0 -Pn 1 -Pl 0 -Pe 0->0 -Pw 0 -Pm 0 -Pc 0 -Pb 0->0 
r -t 1.012024421 -Hs 10 -Hd -1 -Ni 10 -Nx 322.00 -Ny 325.00 -Nz 0.00 -Ne -1.000000 -Nl MAC -Nw --- -Ma 0 -Md ffffffff -Ms 0 -Mt 800 -Is 0.255 -Id 19.255 -It DSR -Il 32 -If 0 -Ii 1 -Iv 32 -P dsr -Ph 1 -Pq 1 -Ps 1 -Pp 0 -Pn 1 -Pl 0 -Pe 0->0 -Pw 0 -Pm 0 -Pc 0 -Pb 0->0 
r -t 1.012024421 -Hs 2 -Hd -1 -Ni 2 -Nx 422.00 -Ny 425.00 -Nz 0.00 -Ne -1.000000 -Nl MAC -Nw --- -Ma 0 -Md ffffffff -Ms 0 -Mt 800 -Is 0.255 -Id 19.255 -It DSR -Il 32 -If 0 -Ii 1 -Iv 32 -P dsr -Ph 1 -Pq 1 -Ps 1 -Pp 0 -Pn 1 -Pl 0 -Pe 0->0 -Pw 0 -Pm 0 -Pc 0 -Pb 0->0 
r -t 1.012024460 -Hs 11 -Hd -1 -Ni 11 -Nx 372.00 -Ny 325.00 -Nz 0.00 -Ne -1.000000 -Nl MAC -Nw --- -Ma 0 -Md ffffffff -Ms 0 -Mt 800 -Is 0.255 -Id 19.255 -It DSR -Il 32 -If 0 -Ii 1 -Iv 32 -P dsr -Ph 1 -Pq 1 -Ps 1 -Pp 0 -Pn 1 -Pl 0 -Pe 0->0 -Pw 0 -Pm 0 -Pc 0 -Pb 0->0 
r -t 1.012024460 -Hs 7 -Hd -1 -Ni 7 -Nx 422.00 -Ny 375.00 -Nz 0.00 -Ne -1.000000 -Nl MAC -Nw --- -Ma 0 -Md ffffffff -Ms 0 -Mt 800 -Is 0.255 -Id 19.255 -It DSR -Il 32 -If 0 -Ii 1 -Iv 32 -P dsr -Ph 1 -Pq 1 -Ps 1 -Pp 0 -Pn 1 -Pl 0 -Pe 0->0 -Pw 0 -Pm 0 -Pc 0 -Pb 0->0 
r -t 1.012024559 -Hs 12 -Hd -1 -Ni 12 -Nx 422.00 -Ny 325.00 -Nz 0.00 -Ne -1.000000 -Nl MAC -Nw --- -Ma 0 -Md ffffffff -Ms 0 -Mt 800 -Is 0.255 -Id 19.255 -It DSR -Il 32 -If 0 -Ii 1 -Iv 32 -P dsr -Ph 1 -Pq 1 -Ps 1 -Pp 0 -Pn 1 -Pl 0 -Pe 0->0 -Pw 0 -Pm 0 -Pc 0 -Pb 0->0 
r -t 1.012024588 -Hs 15 -Hd -1 -Ni 15 -Nx 322.00 -Ny 275.00 -Nz 0.00 -Ne -1.000000 -Nl MAC -Nw --- -Ma 0 -Md ffffffff -Ms 0 -Mt 800 -Is 0.255 -Id 19.255 -It DSR -Il 32 -If 0 -Ii 1 -Iv 32 -P dsr -Ph 1 -Pq 1 -Ps 1 -Pp 0 -Pn 1 -Pl 0 -Pe 0->0 -Pw 0 -Pm 0 -Pc 0 -Pb 0->0 
r -t 1.012024588 -Hs 3 -Hd -1 -Ni 3 -Nx 472.00 -Ny 425.00 -Nz 0.00 -Ne -1.000000 -Nl MAC -Nw --- -Ma 0 -Md ffffffff -Ms 0 -Mt 800 -Is 0.255 -Id 19.255 -It DSR -Il 32 -If 0 -Ii 1 -Iv 32 -P dsr -Ph 1 -Pq 1 -Ps 1 -Pp 0 -Pn 1 -Pl 0 -Pe 0->0 -Pw 0 -Pm 0 -Pc 0 -Pb 0->0 
r -t 1.012024615 -Hs 16 -Hd -1 -Ni 16 -Nx 372.00 -Ny 275.00 -Nz 0.00 -Ne -1.000000 -Nl MAC -Nw --- -Ma 0 -Md ffffffff -Ms 0 -Mt 800 -Is 0.255 -Id 19.255 -It DSR -Il 32 -If 0 -Ii 1 -Iv 32 -P dsr -Ph 1 -Pq 1 -Ps 1 -Pp 0 -Pn 1 -Pl 0 -Pe 0->0 -Pw 0 -Pm 0 -Pc 0 -Pb 0->0 
r -t 1.012024615 -Hs 8 -Hd -1 -Ni 8 -Nx 472.00 -Ny 375.00 -Nz 0.00 -Ne -1.000000 -Nl MAC -Nw --- -Ma 0 -Md ffffffff -Ms 0 -Mt 800 -Is 0.255 -Id 19.255 -It DSR -Il 32 -If 0 -Ii 1 -Iv 32 -P dsr -Ph 1 -Pq 1 -Ps 1 -Pp 0 -Pn 1 -Pl 0 -Pe 0->0 -Pw 0 -Pm 0 -Pc 0 -Pb 0->0 
r -t 1.012024688 -Hs 17 -Hd -1 -Ni 17 -Nx 422.00 -Ny 275.00 -Nz 0.00 -Ne -1.000000 -Nl MAC -Nw --- -Ma 0 -Md ffffffff -Ms 0 -Mt 800 -Is 0.255 -Id 19.255 -It DSR -Il 32 -If 0 -Ii 1 -Iv 32 -P dsr -Ph 1 -Pq 1 -Ps 1 -Pp 0 -Pn 1 -Pl 0 -Pe 0->0 -Pw 0 -Pm 0 -Pc 0 -Pb 0->0 
r -t 1.012024688 -Hs 13 -Hd -1 -Ni 13 -Nx 472.00 -Ny 325.00 -Nz 0.00 -Ne -1.000000 -Nl MAC -Nw --- -Ma 0 -Md ffffffff -Ms 0 -Mt 800 -Is 0.255 -Id 19.255 -It DSR -Il 32 -If 0 -Ii 1 -Iv 32 -P dsr -Ph 1 -Pq 1 -Ps 1 -Pp 0 -Pn 1 -Pl 0 -Pe 0->0 -Pw 0 -Pm 0 -Pc 0 -Pb 0->0 
r -t 1.012024754 -Hs 4 -Hd -1 -Ni 4 -Nx 522.00 -Ny 425.00 -Nz 0.00 -Ne -1.000000 -Nl MAC -Nw --- -Ma 0 -Md ffffffff -Ms 0 -Mt 800 -Is 0.255 -Id 19.255 -It DSR -Il 32 -If 0 -Ii 1 -Iv 32 -P dsr -Ph 1 -Pq 1 -Ps 1 -Pp 0 -Pn 1 -Pl 0 -Pe 0->0 -Pw 0 -Pm 0 -Pc 0 -Pb 0->0 
r -t 1.012024775 -Hs 9 -Hd -1 -Ni 9 -Nx 522.00 -Ny 375.00 -Nz 0.00 -Ne -1.000000 -Nl MAC -Nw --- -Ma 0 -Md ffffffff -Ms 0 -Mt 800 -Is 0.255 -Id 19.255 -It DSR -Il 32 -If 0 -Ii 1 -Iv 32 -P dsr -Ph 1 -Pq 1 -Ps 1 -Pp 0 -Pn 1 -Pl 0 -Pe 0->0 -Pw 0 -Pm 0 -Pc 0 -Pb 0->0 
r -t 1.012024795 -Hs 18 -Hd -1 -Ni 18 -Nx 472.00 -Ny 275.00 -Nz 0.00 -Ne -1.000000 -Nl MAC -Nw --- -Ma 0 -Md ffffffff -Ms 0 -Mt 800 -Is 0.255 -Id 19.255 -It DSR -Il 32 -If 0 -Ii 1 -Iv 32 -P dsr -Ph 1 -Pq 1 -Ps 1 -Pp 0 -Pn 1 -Pl 0 -Pe 0->0 -Pw 0 -Pm 0 -Pc 0 -Pb 0->0 
r -t 1.012024833 -Hs 14 -Hd -1 -Ni 14 -Nx 522.00 -Ny 325.00 -Nz 0.00 -Ne -1.000000 -Nl MAC -Nw --- -Ma 0 -Md ffffffff -Ms 0 -Mt 800 -Is 0.255 -Id 19.255 -It DSR -Il 32 -If 0 -Ii 1 -Iv 32 -P dsr -Ph 1 -Pq 1 -Ps 1 -Pp 0 -Pn 1 -Pl 0 -Pe 0->0 -Pw 0 -Pm 0 -Pc 0 -Pb 0->0 
r -t 1.012024921 -Hs 19 -Hd -1 -Ni 19 -Nx 522.00 -Ny 275.00 -Nz 0.00 -Ne -1.000000 -Nl MAC -Nw --- -Ma 0 -Md ffffffff -Ms 0 -Mt 800 -Is 0.255 -Id 19.255 -It DSR -Il 32 -If 0 -Ii 1 -Iv 32 -P dsr -Ph 1 -Pq 1 -Ps 1 -Pp 0 -Pn 1 -Pl 0 -Pe 0->0 -Pw 0 -Pm 0 -Pc 0 -Pb 0->0 
r -t 1.012049254 -Hs 5 -Hd -1 -Ni 5 -Nx 322.00 -Ny 375.00 -Nz 0.00 -Ne -1.000000 -Nl RTR -Nw --- -Ma 0 -Md ffffffff -Ms 0 -Mt 800 -Is 0.255 -Id 19.255 -It DSR -Il 32 -If 0 -Ii 1 -Iv 32 -P dsr -Ph 1 -Pq 1 -Ps 1 -Pp 0 -Pn 1 -Pl 0 -Pe 0->0 -Pw 0 -Pm 0 -Pc 0 -Pb 0->0 
r -t 1.012049254 -Hs 1 -Hd -1 -Ni 1 -Nx 372.00 -Ny 425.00 -Nz 0.00 -Ne -1.000000 -Nl RTR -Nw --- -Ma 0 -Md ffffffff -Ms 0 -Mt 800 -Is 0.255 -Id 19.255 -It DSR -Il 32 -If 0 -Ii 1 -Iv 32 -P dsr -Ph 1 -Pq 1 -Ps 1 -Pp 0 -Pn 1 -Pl 0 -Pe 0->0 -Pw 0 -Pm 0 -Pc 0 -Pb 0->0 
r -t 1.012049323 -Hs 6 -Hd -1 -Ni 6 -Nx 372.00 -Ny 375.00 -Nz 0.00 -Ne -1.000000 -Nl RTR -Nw --- -Ma 0 -Md ffffffff -Ms 0 -Mt 800 -Is 0.255 -Id 19.255 -It DSR -Il 32 -If 0 -Ii 1 -Iv 32 -P dsr -Ph 1 -Pq 1 -Ps 1 -Pp 0 -Pn 1 -Pl 0 -Pe 0->0 -Pw 0 -Pm 0 -Pc 0 -Pb 0->0 
r -t 1.012049421 -Hs 10 -Hd -1 -Ni 10 -Nx 322.00 -Ny 325.00 -Nz 0.00 -Ne -1.000000 -Nl RTR -Nw --- -Ma 0 -Md ffffffff -Ms 0 -Mt 800 -Is 0.255 -Id 19.255 -It DSR -Il 32 -If 0 -Ii 1 -Iv 32 -P dsr -Ph 1 -Pq 1 -Ps 1 -Pp 0 -Pn 1 -Pl 0 -Pe 0->0 -Pw 0 -Pm 0 -Pc 0 -Pb 0->0 
r -t 1.012049421 -Hs 2 -Hd -1 -Ni 2 -Nx 422.00 -Ny 425.00 -Nz 0.00 -Ne -1.000000 -Nl RTR -Nw --- -Ma 0 -Md ffffffff -Ms 0 -Mt 800 -Is 0.255 -Id 19.255 -It DSR -Il 32 -If 0 -Ii 1 -Iv 32 -P dsr -Ph 1 -Pq 1 -Ps 1 -Pp 0 -Pn 1 -Pl 0 -Pe 0->0 -Pw 0 -Pm 0 -Pc 0 -Pb 0->0 
r -t 1.012049460 -Hs 11 -Hd -1 -Ni 11 -Nx 372.00 -Ny 325.00 -Nz 0.00 -Ne -1.000000 -Nl RTR -Nw --- -Ma 0 -Md ffffffff -Ms 0 -Mt 800 -Is 0.255 -Id 19.255 -It DSR -Il 32 -If 0 -Ii 1 -Iv 32 -P dsr -Ph 1 -Pq 1 -Ps 1 -Pp 0 -Pn 1 -Pl 0 -Pe 0->0 -Pw 0 -Pm 0 -Pc 0 -Pb 0->0 
r -t 1.012049460 -Hs 7 -Hd -1 -Ni 7 -Nx 422.00 -Ny 375.00 -Nz 0.00 -Ne -1.000000 -Nl RTR -Nw --- -Ma 0 -Md ffffffff -Ms 0 -Mt 800 -Is 0.255 -Id 19.255 -It DSR -Il 32 -If 0 -Ii 1 -Iv 32 -P dsr -Ph 1 -Pq 1 -Ps 1 -Pp 0 -Pn 1 -Pl 0 -Pe 0->0 -Pw 0 -Pm 0 -Pc 0 -Pb 0->0 
r -t 1.012049559 -Hs 12 -Hd -1 -Ni 12 -Nx 422.00 -Ny 325.00 -Nz 0.00 -Ne -1.000000 -Nl RTR -Nw --- -Ma 0 -Md ffffffff -Ms 0 -Mt 800 -Is 0.255 -Id 19.255 -It DSR -Il 32 -If 0 -Ii 1 -Iv 32 -P dsr -Ph 1 -Pq 1 -Ps 1 -Pp 0 -Pn 1 -Pl 0 -Pe 0->0 -Pw 0 -Pm 0 -Pc 0 -Pb 0->0 
r -t 1.012049588 -Hs 15 -Hd -1 -Ni 15 -Nx 322.00 -Ny 275.00 -Nz 0.00 -Ne -1.000000 -Nl RTR -Nw --- -Ma 0 -Md ffffffff -Ms 0 -Mt 800 -Is 0.255 -Id 19.255 -It DSR -Il 32 -If 0 -Ii 1 -Iv 32 -P dsr -Ph 1 -Pq 1 -Ps 1 -Pp 0 -Pn 1 -Pl 0 -Pe 0->0 -Pw 0 -Pm 0 -Pc 0 -Pb 0->0 
r -t 1.012049588 -Hs 3 -Hd -1 -Ni 3 -Nx 472.00 -Ny 425.00 -Nz 0.00 -Ne -1.000000 -Nl RTR -Nw --- -Ma 0 -Md ffffffff -Ms 0 -Mt 800 -Is 0.255 -Id 19.255 -It DSR -Il 32 -If 0 -Ii 1 -Iv 32 -P dsr -Ph 1 -Pq 1 -Ps 1 -Pp 0 -Pn 1 -Pl 0 -Pe 0->0 -Pw 0 -Pm 0 -Pc 0 -Pb 0->0 
r -t 1.012049615 -Hs 16 -Hd -1 -Ni 16 -Nx 372.00 -Ny 275.00 -Nz 0.00 -Ne -1.000000 -Nl RTR -Nw --- -Ma 0 -Md ffffffff -Ms 0 -Mt 800 -Is 0.255 -Id 19.255 -It DSR -Il 32 -If 0 -Ii 1 -Iv 32 -P dsr -Ph 1 -Pq 1 -Ps 1 -Pp 0 -Pn 1 -Pl 0 -Pe 0->0 -Pw 0 -Pm 0 -Pc 0 -Pb 0->0 
r -t 1.012049615 -Hs 8 -Hd -1 -Ni 8 -Nx 472.00 -Ny 375.00 -Nz 0.00 -Ne -1.000000 -Nl RTR -Nw --- -Ma 0 -Md ffffffff -Ms 0 -Mt 800 -Is 0.255 -Id 19.255 -It DSR -Il 32 -If 0 -Ii 1 -Iv 32 -P dsr -Ph 1 -Pq 1 -Ps 1 -Pp 0 -Pn 1 -Pl 0 -Pe 0->0 -Pw 0 -Pm 0 -Pc 0 -Pb 0->0 
r -t 1.012049688 -Hs 17 -Hd -1 -Ni 17 -Nx 422.00 -Ny 275.00 -Nz 0.00 -Ne -1.000000 -Nl RTR -Nw --- -Ma 0 -Md ffffffff -Ms 0 -Mt 800 -Is 0.255 -Id 19.255 -It DSR -Il 32 -If 0 -Ii 1 -Iv 32 -P dsr -Ph 1 -Pq 1 -Ps 1 -Pp 0 -Pn 1 -Pl 0 -Pe 0->0 -Pw 0 -Pm 0 -Pc 0 -Pb 0->0 
r -t 1.012049688 -Hs 13 -Hd -1 -Ni 13 -Nx 472.00 -Ny 325.00 -Nz 0.00 -Ne -1.000000 -Nl RTR -Nw --- -Ma 0 -Md ffffffff -Ms 0 -Mt 800 -Is 0.255 -Id 19.255 -It DSR -Il 32 -If 0 -Ii 1 -Iv 32 -P dsr -Ph 1 -Pq 1 -Ps 1 -Pp 0 -Pn 1 -Pl 0 -Pe 0->0 -Pw 0 -Pm 0 -Pc 0 -Pb 0->0 
r -t 1.012049754 -Hs 4 -Hd -1 -Ni 4 -Nx 522.00 -Ny 425.00 -Nz 0.00 -Ne -1.000000 -Nl RTR -Nw --- -Ma 0 -Md ffffffff -Ms 0 -Mt 800 -Is 0.255 -Id 19.255 -It DSR -Il 32 -If 0 -Ii 1 -Iv 32 -P dsr -Ph 1 -Pq 1 -Ps 1 -Pp 0 -Pn 1 -Pl 0 -Pe 0->0 -Pw 0 -Pm 0 -Pc 0 -Pb 0->0 
r -t 1.012049775 -Hs 9 -Hd -1 -Ni 9 -Nx 522.00 -Ny 375.00 -Nz 0.00 -Ne -1.000000 -Nl RTR -Nw --- -Ma 0 -Md ffffffff -Ms 0 -Mt 800 -Is 0.255 -Id 19.255 -It DSR -Il 32 -If 0 -Ii 1 -Iv 32 -P dsr -Ph 1 -Pq 1 -Ps 1 -Pp 0 -Pn 1 -Pl 0 -Pe 0->0 -Pw 0 -Pm 0 -Pc 0 -Pb 0->0 
r -t 1.012049795 -Hs 18 -Hd -1 -Ni 18 -Nx 472.00 -Ny 275.00 -Nz 0.00 -Ne -1.000000 -Nl RTR -Nw --- -Ma 0 -Md ffffffff -Ms 0 -Mt 800 -Is 0.255 -Id 19.255 -It DSR -Il 32 -If 0 -Ii 1 -Iv 32 -P dsr -Ph 1 -Pq 1 -Ps 1 -Pp 0 -Pn 1 -Pl 0 -Pe 0->0 -Pw 0 -Pm 0 -Pc 0 -Pb 0->0 
r -t 1.012049833 -Hs 14 -Hd -1 -Ni 14 -Nx 522.00 -Ny 325.00 -Nz 0.00 -Ne -1.000000 -Nl RTR -Nw --- -Ma 0 -Md ffffffff -Ms 0 -Mt 800 -Is 0.255 -Id 19.255 -It DSR -Il 32 -If 0 -Ii 1 -Iv 32 -P dsr -Ph 1 -Pq 1 -Ps 1 -Pp 0 -Pn 1 -Pl 0 -Pe 0->0 -Pw 0 -Pm 0 -Pc 0 -Pb 0->0 
r -t 1.012049921 -Hs 19 -Hd -1 -Ni 19 -Nx 522.00 -Ny 275.00 -Nz 0.00 -Ne -1.000000 -Nl RTR -Nw --- -Ma 0 -Md ffffffff -Ms 0 -Mt 800 -Is 0.255 -Id 19.255 -It DSR -Il 32 -If 0 -Ii 1 -Iv 32 -P dsr -Ph 1 -Pq 1 -Ps 1 -Pp 0 -Pn 1 -Pl 0 -Pe 0->0 -Pw 0 -Pm 0 -Pc 0 -Pb 0->0 
s -t 1.012354754 -Hs 4 -Hd -2 -Ni 4 -Nx 522.00 -Ny 425.00 -Nz 0.00 -Ne -1.000000 -Nl MAC -Nw --- -Ma 5ae -Md f -Ms 4 -Mt 0 
r -t 1.012707588 -Hs 15 -Hd -2 -Ni 15 -Nx 322.00 -Ny 275.00 -Nz 0.00 -Ne -1.000000 -Nl MAC -Nw --- -Ma 5ae -Md f -Ms 4 -Mt 0 
s -t 1.012717588 -Hs 15 -Hd -2 -Ni 15 -Nx 322.00 -Ny 275.00 -Nz 0.00 -Ne -1.000000 -Nl MAC -Nw --- -Ma 474 -Md 4 -Ms 0 -Mt 0 
r -t 1.013022421 -Hs 4 -Hd -2 -Ni 4 -Nx 522.00 -Ny 425.00 -Nz 0.00 -Ne -1.000000 -Nl MAC -Nw --- -Ma 474 -Md 4 -Ms 0 -Mt 0 
s -t 1.013032421 -Hs 4 -Hd 15 -Ni 4 -Nx 522.00 -Ny 425.00 -Nz 0.00 -Ne -1.000000 -Nl MAC -Nw --- -Ma 13a -Md f -Ms 4 -Mt 800 -Is 4.255 -Id 15.255 -It DSR -Il 102 -If 0 -Ii 4 -Iv 254 -P dsr -Ph 2 -Pq 0 -Ps 1 -Pp 1 -Pn 1 -Pl 2 -Pe 15->4 -Pw 0 -Pm 0 -Pc 0 -Pb 0->0 
r -t 1.013849254 -Hs 15 -Hd 15 -Ni 15 -Nx 322.00 -Ny 275.00 -Nz 0.00 -Ne -1.000000 -Nl MAC -Nw --- -Ma 13a -Md f -Ms 4 -Mt 800 -Is 4.255 -Id 15.255 -It DSR -Il 44 -If 0 -Ii 4 -Iv 254 -P dsr -Ph 2 -Pq 0 -Ps 1 -Pp 1 -Pn 1 -Pl 2 -Pe 15->4 -Pw 0 -Pm 0 -Pc 0 -Pb 0->0 
s -t 1.013859254 -Hs 15 -Hd -2 -Ni 15 -Nx 322.00 -Ny 275.00 -Nz 0.00 -Ne -1.000000 -Nl MAC -Nw --- -Ma 0 -Md 4 -Ms 0 -Mt 0 
r -t 1.013874254 -Hs 15 -Hd 15 -Ni 15 -Nx 322.00 -Ny 275.00 -Nz 0.00 -Ne -1.000000 -Nl RTR -Nw --- -Ma 13a -Md f -Ms 4 -Mt 800 -Is 4.255 -Id 15.255 -It DSR -Il 44 -If 0 -Ii 4 -Iv 254 -P dsr -Ph 2 -Pq 0 -Ps 1 -Pp 1 -Pn 1 -Pl 2 -Pe 15->4 -Pw 0 -Pm 0 -Pc 0 -Pb 0->0 
SFESTs 1.013874254 _15_ 2 [15 -> 4] 1(1) to 4 [15 |4 ]
s -t 1.013874254 -Hs 15 -Hd 4 -Ni 15 -Nx 322.00 -Ny 275.00 -Nz 0.00 -Ne -1.000000 -Nl RTR -Nw --- -Ma 0 -Md 0 -Ms 0 -Mt 0 -Is 15.0 -Id 4.0 -It tcp -Il 76 -If 0 -Ii 2 -Iv 32 -Pn tcp -Ps 0 -Pa 0 -Pf 0 -Po 0 
r -t 1.014164088 -Hs 4 -Hd -2 -Ni 4 -Nx 522.00 -Ny 425.00 -Nz 0.00 -Ne -1.000000 -Nl MAC -Nw --- -Ma 0 -Md 4 -Ms 0 -Mt 0 
s -t 1.014253254 -Hs 15 -Hd -2 -Ni 15 -Nx 322.00 -Ny 275.00 -Nz 0.00 -Ne -1.000000 -Nl MAC -Nw --- -Ma 6ae -Md 4 -Ms f -Mt 0 
r -t 1.014606088 -Hs 4 -Hd -2 -Ni 4 -Nx 522.00 -Ny 425.00 -Nz 0.00 -Ne -1.000000 -Nl MAC -Nw --- -Ma 6ae -Md 4 -Ms f -Mt 0 
s -t 1.014616088 -Hs 4 -Hd -2 -Ni 4 -Nx 522.00 -Ny 425.00 -Nz 0.00 -Ne -1.000000 -Nl MAC -Nw --- -Ma 574 -Md f -Ms 0 -Mt 0 
r -t 1.014920921 -Hs 15 -Hd -2 -Ni 15 -Nx 322.00 -Ny 275.00 -Nz 0.00 -Ne -1.000000 -Nl MAC -Nw --- -Ma 574 -Md f -Ms 0 -Mt 0 
s -t 1.014930921 -Hs 15 -Hd 4 -Ni 15 -Nx 322.00 -Ny 275.00 -Nz 0.00 -Ne -1.000000 -Nl MAC -Nw --- -Ma 13a -Md 4 -Ms f -Mt 800 -Is 15.0 -Id 4.0 -It tcp -Il 134 -If 0 -Ii 2 -Iv 32 -Pn tcp -Ps 0 -Pa 0 -Pf 0 -Po 0 
r -t 1.016003754 -Hs 4 -Hd 4 -Ni 4 -Nx 522.00 -Ny 425.00 -Nz 0.00 -Ne -1.000000 -Nl MAC -Nw --- -Ma 13a -Md 4 -Ms f -Mt 800 -Is 15.0 -Id 4.0 -It tcp -Il 76 -If 0 -Ii 2 -Iv 32 -Pn tcp -Ps 0 -Pa 0 -Pf 1 -Po 0 