n -t * -s 0  -x 392 -y 421 -Z 0 -z 20  -v circle -c black
n -t * -s 1  -x 442 -y 421 -Z 0 -z 20  -v circle -c black
n -t * -s 2  -x 492 -y 421 -Z 0 -z 20  -v circle -c black
n -t * -s 3  -x 542 -y 421 -Z 0 -z 20  -v circle -c black
n -t * -s 4  -x 592 -y 421 -Z 0 -z 20  -v circle -c black
n -t * -s 5  -x 642 -y 421 -Z 0 -z 20  -v circle -c black
n -t * -s 6  -x 392 -y 371 -Z 0 -z 20  -v circle -c black
n -t * -s 7  -x 442 -y 371 -Z 0 -z 20  -v circle -c black
n -t * -s 8  -x 492 -y 371 -Z 0 -z 20  -v circle -c black
n -t * -s 9  -x 542 -y 371 -Z 0 -z 20  -v circle -c black
n -t * -s 10  -x 592 -y 371 -Z 0 -z 20  -v circle -c black
n -t * -s 11  -x 642 -y 371 -Z 0 -z 20  -v circle -c black
n -t * -s 12  -x 392 -y 321 -Z 0 -z 20  -v circle -c black
n -t * -s 13  -x 442 -y 321 -Z 0 -z 20  -v circle -c black
n -t * -s 14  -x 492 -y 321 -Z 0 -z 20  -v circle -c black
n -t * -s 15  -x 542 -y 321 -Z 0 -z 20  -v circle -c black
n -t * -s 16  -x 592 -y 321 -Z 0 -z 20  -v circle -c black
n -t * -s 17  -x 642 -y 321 -Z 0 -z 20  -v circle -c black
n -t * -s 18  -x 392 -y 271 -Z 0 -z 20  -v circle -c black
n -t * -s 19  -x 442 -y 271 -Z 0 -z 20  -v circle -c black
n -t * -s 20  -x 492 -y 271 -Z 0 -z 20  -v circle -c black
n -t * -s 21  -x 542 -y 271 -Z 0 -z 20  -v circle -c black
n -t * -s 22  -x 592 -y 271 -Z 0 -z 20  -v circle -c black
n -t * -s 23  -x 642 -y 271 -Z 0 -z 20  -v circle -c black
n -t * -s 24  -x 392 -y 221 -Z 0 -z 20  -v circle -c black
n -t * -s 25  -x 442 -y 221 -Z 0 -z 20  -v circle -c black
n -t * -s 26  -x 492 -y 221 -Z 0 -z 20  -v circle -c black
n -t * -s 27  -x 542 -y 221 -Z 0 -z 20  -v circle -c black
n -t * -s 28  -x 592 -y 221 -Z 0 -z 20  -v circle -c black
n -t * -s 29  -x 642 -y 221 -Z 0 -z 20  -v circle -c black
V -t * -v 1.0a5 -a 0
W -t * -x 742 -y 521
A -t * -n 1 -p 0 -o 0x7fffffff -c 30 -a 1
A -t * -h 1 -m 1073741823 -s 0
+ -t 1.000000000 -s 2 -d -1 -p tcp -e 40 -c 2 -a 0 -i 0 -k AGT 
- -t 1.000000000 -s 2 -d -1 -p tcp -e 40 -c 2 -a 0 -i 0 -k AGT
h -t 1.000000000 -s 2 -d -1 -p tcp -e 40 -c 2 -a 0 -i 0 -k AGT
+ -t 1.000000000 -s 27 -d -1 -p tcp -e 40 -c 2 -a 0 -i 2 -k AGT 
- -t 1.000000000 -s 27 -d -1 -p tcp -e 40 -c 2 -a 0 -i 2 -k AGT
h -t 1.000000000 -s 27 -d -1 -p tcp -e 40 -c 2 -a 0 -i 2 -k AGT
+ -t 1.000505146 -s 2 -d -1 -p DSR -e 32 -c 2 -a 0 -i 1 -k RTR 
- -t 1.000505146 -s 2 -d -1 -p DSR -e 32 -c 2 -a 0 -i 1 -k RTR
h -t 1.000505146 -s 2 -d -1 -p DSR -e 32 -c 2 -a 0 -i 1 -k RTR
+ -t 1.000740146 -s 2 -d -1 -p DSR -e 90 -c 2 -a 0 -i 1 -k MAC 
- -t 1.000740146 -s 2 -d -1 -p DSR -e 90 -c 2 -a 0 -i 1 -k MAC
h -t 1.000740146 -s 2 -d -1 -p DSR -e 90 -c 2 -a 0 -i 1 -k MAC
r -t 1.001460313 -s 1 -d -1 -p DSR -e 32 -c 2 -a 0 -i 1 -k MAC
r -t 1.001460313 -s 8 -d -1 -p DSR -e 32 -c 2 -a 0 -i 1 -k MAC
r -t 1.001460313 -s 3 -d -1 -p DSR -e 32 -c 2 -a 0 -i 1 -k MAC
r -t 1.001460382 -s 7 -d -1 -p DSR -e 32 -c 2 -a 0 -i 1 -k MAC
r -t 1.001460382 -s 9 -d -1 -p DSR -e 32 -c 2 -a 0 -i 1 -k MAC
r -t 1.001460479 -s 0 -d -1 -p DSR -e 32 -c 2 -a 0 -i 1 -k MAC
r -t 1.001460479 -s 14 -d -1 -p DSR -e 32 -c 2 -a 0 -i 1 -k MAC
r -t 1.001460479 -s 4 -d -1 -p DSR -e 32 -c 2 -a 0 -i 1 -k MAC
r -t 1.001460519 -s 13 -d -1 -p DSR -e 32 -c 2 -a 0 -i 1 -k MAC
r -t 1.001460519 -s 6 -d -1 -p DSR -e 32 -c 2 -a 0 -i 1 -k MAC
r -t 1.001460519 -s 15 -d -1 -p DSR -e 32 -c 2 -a 0 -i 1 -k MAC
r -t 1.001460519 -s 10 -d -1 -p DSR -e 32 -c 2 -a 0 -i 1 -k MAC
r -t 1.001460617 -s 12 -d -1 -p DSR -e 32 -c 2 -a 0 -i 1 -k MAC
r -t 1.001460617 -s 16 -d -1 -p DSR -e 32 -c 2 -a 0 -i 1 -k MAC
r -t 1.001460646 -s 20 -d -1 -p DSR -e 32 -c 2 -a 0 -i 1 -k MAC
r -t 1.001460646 -s 5 -d -1 -p DSR -e 32 -c 2 -a 0 -i 1 -k MAC
r -t 1.001460673 -s 19 -d -1 -p DSR -e 32 -c 2 -a 0 -i 1 -k MAC
r -t 1.001460673 -s 21 -d -1 -p DSR -e 32 -c 2 -a 0 -i 1 -k MAC
r -t 1.001460673 -s 11 -d -1 -p DSR -e 32 -c 2 -a 0 -i 1 -k MAC
r -t 1.001460747 -s 18 -d -1 -p DSR -e 32 -c 2 -a 0 -i 1 -k MAC
r -t 1.001460747 -s 22 -d -1 -p DSR -e 32 -c 2 -a 0 -i 1 -k MAC
r -t 1.001460747 -s 17 -d -1 -p DSR -e 32 -c 2 -a 0 -i 1 -k MAC
r -t 1.001460813 -s 26 -d -1 -p DSR -e 32 -c 2 -a 0 -i 1 -k MAC
r -t 1.001460833 -s 25 -d -1 -p DSR -e 32 -c 2 -a 0 -i 1 -k MAC
r -t 1.001460833 -s 27 -d -1 -p DSR -e 32 -c 2 -a 0 -i 1 -k MAC
r -t 1.001460853 -s 23 -d -1 -p DSR -e 32 -c 2 -a 0 -i 1 -k MAC
r -t 1.001460891 -s 24 -d -1 -p DSR -e 32 -c 2 -a 0 -i 1 -k MAC
r -t 1.001460891 -s 28 -d -1 -p DSR -e 32 -c 2 -a 0 -i 1 -k MAC
r -t 1.001460979 -s 29 -d -1 -p DSR -e 32 -c 2 -a 0 -i 1 -k MAC
+ -t 1.006338907 -s 18 -d 2 -p DSR -e 44 -c 2 -a 0 -i 4 -k RTR 
- -t 1.006338907 -s 18 -d 2 -p DSR -e 44 -c 2 -a 0 -i 4 -k RTR
h -t 1.006338907 -s 18 -d 2 -p DSR -e 44 -c 2 -a 0 -i 4 -k RTR
+ -t 1.006853907 -s 18 -d -1 -p ARP -e 86 -c 2 -a 0 -i 0 -k MAC 
- -t 1.006853907 -s 18 -d -1 -p ARP -e 86 -c 2 -a 0 -i 0 -k MAC
h -t 1.006853907 -s 18 -d -1 -p ARP -e 86 -c 2 -a 0 -i 0 -k MAC
+ -t 1.007481398 -s 27 -d -1 -p DSR -e 32 -c 2 -a 0 -i 3 -k RTR 
- -t 1.007481398 -s 27 -d -1 -p DSR -e 32 -c 2 -a 0 -i 3 -k RTR
h -t 1.007481398 -s 27 -d -1 -p DSR -e 32 -c 2 -a 0 -i 3 -k RTR
r -t 1.007542074 -s 12 -d -1 -p ARP -e 28 -c 2 -a 0 -i 0 -k MAC
r -t 1.007542074 -s 24 -d -1 -p ARP -e 28 -c 2 -a 0 -i 0 -k MAC
r -t 1.007542074 -s 19 -d -1 -p ARP -e 28 -c 2 -a 0 -i 0 -k MAC
r -t 1.007542143 -s 13 -d -1 -p ARP -e 28 -c 2 -a 0 -i 0 -k MAC
r -t 1.007542143 -s 25 -d -1 -p ARP -e 28 -c 2 -a 0 -i 0 -k MAC
r -t 1.007542240 -s 6 -d -1 -p ARP -e 28 -c 2 -a 0 -i 0 -k MAC
r -t 1.007542240 -s 20 -d -1 -p ARP -e 28 -c 2 -a 0 -i 0 -k MAC
r -t 1.007542280 -s 7 -d -1 -p ARP -e 28 -c 2 -a 0 -i 0 -k MAC
r -t 1.007542280 -s 14 -d -1 -p ARP -e 28 -c 2 -a 0 -i 0 -k MAC
r -t 1.007542280 -s 26 -d -1 -p ARP -e 28 -c 2 -a 0 -i 0 -k MAC
r -t 1.007542378 -s 8 -d -1 -p ARP -e 28 -c 2 -a 0 -i 0 -k MAC
r -t 1.007542407 -s 0 -d -1 -p ARP -e 28 -c 2 -a 0 -i 0 -k MAC
r -t 1.007542407 -s 21 -d -1 -p ARP -e 28 -c 2 -a 0 -i 0 -k MAC
r -t 1.007542434 -s 1 -d -1 -p ARP -e 28 -c 2 -a 0 -i 0 -k MAC
r -t 1.007542434 -s 15 -d -1 -p ARP -e 28 -c 2 -a 0 -i 0 -k MAC
r -t 1.007542434 -s 27 -d -1 -p ARP -e 28 -c 2 -a 0 -i 0 -k MAC
r -t 1.007542508 -s 2 -d -1 -p ARP -e 28 -c 2 -a 0 -i 0 -k MAC
r -t 1.007542508 -s 9 -d -1 -p ARP -e 28 -c 2 -a 0 -i 0 -k MAC
r -t 1.007542574 -s 22 -d -1 -p ARP -e 28 -c 2 -a 0 -i 0 -k MAC
r -t 1.007542594 -s 16 -d -1 -p ARP -e 28 -c 2 -a 0 -i 0 -k MAC
r -t 1.007542594 -s 28 -d -1 -p ARP -e 28 -c 2 -a 0 -i 0 -k MAC
r -t 1.007542614 -s 3 -d -1 -p ARP -e 28 -c 2 -a 0 -i 0 -k MAC
r -t 1.007542652 -s 10 -d -1 -p ARP -e 28 -c 2 -a 0 -i 0 -k MAC
r -t 1.007542740 -s 4 -d -1 -p ARP -e 28 -c 2 -a 0 -i 0 -k MAC
r -t 1.007542740 -s 23 -d -1 -p ARP -e 28 -c 2 -a 0 -i 0 -k MAC
+ -t 1.007957508 -s 2 -d -1 -p RTS -e 44 -c 2 -a 0 -i 0 -k MAC 
- -t 1.007957508 -s 2 -d -1 -p RTS -e 44 -c 2 -a 0 -i 0 -k MAC
h -t 1.007957508 -s 2 -d -1 -p RTS -e 44 -c 2 -a 0 -i 0 -k MAC
r -t 1.008310109 -s 18 -d -1 -p RTS -e 44 -c 2 -a 0 -i 0 -k MAC
+ -t 1.008320109 -s 18 -d -1 -p CTS -e 38 -c 2 -a 0 -i 0 -k MAC 
- -t 1.008320109 -s 18 -d -1 -p CTS -e 38 -c 2 -a 0 -i 0 -k MAC
h -t 1.008320109 -s 18 -d -1 -p CTS -e 38 -c 2 -a 0 -i 0 -k MAC
r -t 1.008624710 -s 2 -d -1 -p CTS -e 38 -c 2 -a 0 -i 0 -k MAC
+ -t 1.008634710 -s 2 -d -1 -p ARP -e 86 -c 2 -a 0 -i 0 -k MAC 
- -t 1.008634710 -s 2 -d -1 -p ARP -e 86 -c 2 -a 0 -i 0 -k MAC
h -t 1.008634710 -s 2 -d -1 -p ARP -e 86 -c 2 -a 0 -i 0 -k MAC
r -t 1.009323311 -s 18 -d -1 -p ARP -e 28 -c 2 -a 0 -i 0 -k MAC
+ -t 1.009333311 -s 18 -d -1 -p ACK -e 38 -c 2 -a 0 -i 0 -k MAC 
- -t 1.009333311 -s 18 -d -1 -p ACK -e 38 -c 2 -a 0 -i 0 -k MAC
h -t 1.009333311 -s 18 -d -1 -p ACK -e 38 -c 2 -a 0 -i 0 -k MAC
r -t 1.009637912 -s 2 -d -1 -p ACK -e 38 -c 2 -a 0 -i 0 -k MAC
+ -t 1.009767838 -s 27 -d -1 -p DSR -e 90 -c 2 -a 0 -i 3 -k MAC 
- -t 1.009767838 -s 27 -d -1 -p DSR -e 90 -c 2 -a 0 -i 3 -k MAC
h -t 1.009767838 -s 27 -d -1 -p DSR -e 90 -c 2 -a 0 -i 3 -k MAC
r -t 1.010488004 -s 21 -d -1 -p DSR -e 32 -c 2 -a 0 -i 3 -k MAC
r -t 1.010488004 -s 26 -d -1 -p DSR -e 32 -c 2 -a 0 -i 3 -k MAC
r -t 1.010488004 -s 28 -d -1 -p DSR -e 32 -c 2 -a 0 -i 3 -k MAC
r -t 1.010488073 -s 20 -d -1 -p DSR -e 32 -c 2 -a 0 -i 3 -k MAC
r -t 1.010488073 -s 22 -d -1 -p DSR -e 32 -c 2 -a 0 -i 3 -k MAC
r -t 1.010488171 -s 15 -d -1 -p DSR -e 32 -c 2 -a 0 -i 3 -k MAC
r -t 1.010488171 -s 25 -d -1 -p DSR -e 32 -c 2 -a 0 -i 3 -k MAC
r -t 1.010488171 -s 29 -d -1 -p DSR -e 32 -c 2 -a 0 -i 3 -k MAC
r -t 1.010488210 -s 14 -d -1 -p DSR -e 32 -c 2 -a 0 -i 3 -k MAC
r -t 1.010488210 -s 19 -d -1 -p DSR -e 32 -c 2 -a 0 -i 3 -k MAC
r -t 1.010488210 -s 16 -d -1 -p DSR -e 32 -c 2 -a 0 -i 3 -k MAC
r -t 1.010488210 -s 23 -d -1 -p DSR -e 32 -c 2 -a 0 -i 3 -k MAC
r -t 1.010488309 -s 13 -d -1 -p DSR -e 32 -c 2 -a 0 -i 3 -k MAC
r -t 1.010488309 -s 17 -d -1 -p DSR -e 32 -c 2 -a 0 -i 3 -k MAC
r -t 1.010488338 -s 9 -d -1 -p DSR -e 32 -c 2 -a 0 -i 3 -k MAC
r -t 1.010488338 -s 24 -d -1 -p DSR -e 32 -c 2 -a 0 -i 3 -k MAC
r -t 1.010488365 -s 8 -d -1 -p DSR -e 32 -c 2 -a 0 -i 3 -k MAC
r -t 1.010488365 -s 18 -d -1 -p DSR -e 32 -c 2 -a 0 -i 3 -k MAC
r -t 1.010488365 -s 10 -d -1 -p DSR -e 32 -c 2 -a 0 -i 3 -k MAC
r -t 1.010488439 -s 7 -d -1 -p DSR -e 32 -c 2 -a 0 -i 3 -k MAC
r -t 1.010488439 -s 12 -d -1 -p DSR -e 32 -c 2 -a 0 -i 3 -k MAC
r -t 1.010488439 -s 11 -d -1 -p DSR -e 32 -c 2 -a 0 -i 3 -k MAC
r -t 1.010488504 -s 3 -d -1 -p DSR -e 32 -c 2 -a 0 -i 3 -k MAC
r -t 1.010488525 -s 2 -d -1 -p DSR -e 32 -c 2 -a 0 -i 3 -k MAC
r -t 1.010488525 -s 4 -d -1 -p DSR -e 32 -c 2 -a 0 -i 3 -k MAC
r -t 1.010488545 -s 6 -d -1 -p DSR -e 32 -c 2 -a 0 -i 3 -k MAC
r -t 1.010488583 -s 1 -d -1 -p DSR -e 32 -c 2 -a 0 -i 3 -k MAC
r -t 1.010488583 -s 5 -d -1 -p DSR -e 32 -c 2 -a 0 -i 3 -k MAC
r -t 1.010488671 -s 0 -d -1 -p DSR -e 32 -c 2 -a 0 -i 3 -k MAC
+ -t 1.010638365 -s 18 -d -1 -p RTS -e 44 -c 2 -a 0 -i 0 -k MAC 
- -t 1.010638365 -s 18 -d -1 -p RTS -e 44 -c 2 -a 0 -i 0 -k MAC
h -t 1.010638365 -s 18 -d -1 -p RTS -e 44 -c 2 -a 0 -i 0 -k MAC
r -t 1.010990966 -s 2 -d -1 -p RTS -e 44 -c 2 -a 0 -i 0 -k MAC
+ -t 1.011000966 -s 2 -d -1 -p CTS -e 38 -c 2 -a 0 -i 0 -k MAC 
- -t 1.011000966 -s 2 -d -1 -p CTS -e 38 -c 2 -a 0 -i 0 -k MAC
h -t 1.011000966 -s 2 -d -1 -p CTS -e 38 -c 2 -a 0 -i 0 -k MAC
r -t 1.011305567 -s 18 -d -1 -p CTS -e 38 -c 2 -a 0 -i 0 -k MAC
+ -t 1.011315567 -s 18 -d 2 -p DSR -e 102 -c 2 -a 0 -i 4 -k MAC 
- -t 1.011315567 -s 18 -d 2 -p DSR -e 102 -c 2 -a 0 -i 4 -k MAC
h -t 1.011315567 -s 18 -d 2 -p DSR -e 102 -c 2 -a 0 -i 4 -k MAC
r -t 1.012132167 -s 2 -d 2 -p DSR -e 44 -c 2 -a 0 -i 4 -k MAC
+ -t 1.012142167 -s 2 -d -1 -p ACK -e 38 -c 2 -a 0 -i 0 -k MAC 
- -t 1.012142167 -s 2 -d -1 -p ACK -e 38 -c 2 -a 0 -i 0 -k MAC
h -t 1.012142167 -s 2 -d -1 -p ACK -e 38 -c 2 -a 0 -i 0 -k MAC
+ -t 1.012157167 -s 2 -d 18 -p tcp -e 76 -c 2 -a 0 -i 0 -k RTR 
- -t 1.012157167 -s 2 -d 18 -p tcp -e 76 -c 2 -a 0 -i 0 -k RTR
h -t 1.012157167 -s 2 -d 18 -p tcp -e 76 -c 2 -a 0 -i 0 -k RTR
r -t 1.012446768 -s 18 -d -1 -p ACK -e 38 -c 2 -a 0 -i 0 -k MAC
+ -t 1.012816167 -s 2 -d -1 -p RTS -e 44 -c 2 -a 0 -i 0 -k MAC 
- -t 1.012816167 -s 2 -d -1 -p RTS -e 44 -c 2 -a 0 -i 0 -k MAC
h -t 1.012816167 -s 2 -d -1 -p RTS -e 44 -c 2 -a 0 -i 0 -k MAC
r -t 1.013168768 -s 18 -d -1 -p RTS -e 44 -c 2 -a 0 -i 0 -k MAC
+ -t 1.013178768 -s 18 -d -1 -p CTS -e 38 -c 2 -a 0 -i 0 -k MAC 
- -t 1.013178768 -s 18 -d -1 -p CTS -e 38 -c 2 -a 0 -i 0 -k MAC
h -t 1.013178768 -s 18 -d -1 -p CTS -e 38 -c 2 -a 0 -i 0 -k MAC
r -t 1.013483369 -s 2 -d -1 -p CTS -e 38 -c 2 -a 0 -i 0 -k MAC
+ -t 1.013493369 -s 2 -d 18 -p tcp -e 134 -c 2 -a 0 -i 0 -k MAC 
- -t 1.013493369 -s 2 -d 18 -p tcp -e 134 -c 2 -a 0 -i 0 -k MAC
h -t 1.013493369 -s 2 -d 18 -p tcp -e 134 -c 2 -a 0 -i 0 -k MAC
r -t 1.014565970 -s 18 -d 18 -p tcp -e 76 -c 2 -a 0 -i 0 -k MAC
+ -t 1.014575970 -s 18 -d -1 -p ACK -e 38 -c 2 -a 0 -i 0 -k MAC 
- -t 1.014575970 -s 18 -d -1 -p ACK -e 38 -c 2 -a 0 -i 0 -k MAC
h -t 1.014575970 -s 18 -d -1 -p ACK -e 38 -c 2 -a 0 -i 0 -k MAC
r -t 1.014590970 -s 18 -d 18 -p tcp -e 40 -c 2 -a 0 -i 0 -k AGT
+ -t 1.014590970 -s 18 -d -1 -p ack -e 40 -c 2 -a 0 -i 8 -k AGT 
- -t 1.014590970 -s 18 -d -1 -p ack -e 40 -c 2 -a 0 -i 8 -k AGT
h -t 1.014590970 -s 18 -d -1 -p ack -e 40 -c 2 -a 0 -i 8 -k AGT
+ -t 1.014590970 -s 18 -d 2 -p ack -e 76 -c 2 -a 0 -i 8 -k RTR 
- -t 1.014590970 -s 18 -d 2 -p ack -e 76 -c 2 -a 0 -i 8 -k RTR
h -t 1.014590970 -s 18 -d 2 -p ack -e 76 -c 2 -a 0 -i 8 -k RTR
r -t 1.014880571 -s 2 -d -1 -p ACK -e 38 -c 2 -a 0 -i 0 -k MAC
+ -t 1.015349970 -s 18 -d -1 -p RTS -e 44 -c 2 -a 0 -i 0 -k MAC 
- -t 1.015349970 -s 18 -d -1 -p RTS -e 44 -c 2 -a 0 -i 0 -k MAC
h -t 1.015349970 -s 18 -d -1 -p RTS -e 44 -c 2 -a 0 -i 0 -k MAC
r -t 1.015702571 -s 2 -d -1 -p RTS -e 44 -c 2 -a 0 -i 0 -k MAC
+ -t 1.015712571 -s 2 -d -1 -p CTS -e 38 -c 2 -a 0 -i 0 -k MAC 
- -t 1.015712571 -s 2 -d -1 -p CTS -e 38 -c 2 -a 0 -i 0 -k MAC
h -t 1.015712571 -s 2 -d -1 -p CTS -e 38 -c 2 -a 0 -i 0 -k MAC
r -t 1.016017172 -s 18 -d -1 -p CTS -e 38 -c 2 -a 0 -i 0 -k MAC
+ -t 1.016027172 -s 18 -d 2 -p ack -e 134 -c 2 -a 0 -i 8 -k MAC 
- -t 1.016027172 -s 18 -d 2 -p ack -e 134 -c 2 -a 0 -i 8 -k MAC
h -t 1.016027172 -s 18 -d 2 -p ack -e 134 -c 2 -a 0 -i 8 -k MAC
r -t 1.017099773 -s 2 -d 2 -p ack -e 76 -c 2 -a 0 -i 8 -k MAC
+ -t 1.017109773 -s 2 -d -1 -p ACK -e 38 -c 2 -a 0 -i 0 -k MAC 
- -t 1.017109773 -s 2 -d -1 -p ACK -e 38 -c 2 -a 0 -i 0 -k MAC
h -t 1.017109773 -s 2 -d -1 -p ACK -e 38 -c 2 -a 0 -i 0 -k MAC
r -t 1.017124773 -s 2 -d 2 -p ack -e 40 -c 2 -a 0 -i 8 -k AGT
+ -t 1.017124773 -s 2 -d -1 -p tcp -e 1540 -c 2 -a 0 -i 9 -k AGT 
- -t 1.017124773 -s 2 -d -1 -p tcp -e 1540 -c 2 -a 0 -i 9 -k AGT
h -t 1.017124773 -s 2 -d -1 -p tcp -e 1540 -c 2 -a 0 -i 9 -k AGT
+ -t 1.017124773 -s 2 -d -1 -p tcp -e 1540 -c 2 -a 0 -i 10 -k AGT 
- -t 1.017124773 -s 2 -d -1 -p tcp -e 1540 -c 2 -a 0 -i 10 -k AGT
h -t 1.017124773 -s 2 -d -1 -p tcp -e 1540 -c 2 -a 0 -i 10 -k AGT
+ -t 1.017124773 -s 2 -d 18 -p tcp -e 1576 -c 2 -a 0 -i 9 -k RTR 
- -t 1.017124773 -s 2 -d 18 -p tcp -e 1576 -c 2 -a 0 -i 9 -k RTR
h -t 1.017124773 -s 2 -d 18 -p tcp -e 1576 -c 2 -a 0 -i 9 -k RTR
+ -t 1.017124773 -s 2 -d 18 -p tcp -e 1576 -c 2 -a 0 -i 10 -k RTR 
- -t 1.017124773 -s 2 -d 18 -p tcp -e 1576 -c 2 -a 0 -i 10 -k RTR
h -t 1.017124773 -s 2 -d 18 -p tcp -e 1576 -c 2 -a 0 -i 10 -k RTR
+ -t 1.017392871 -s 11 -d 27 -p DSR -e 44 -c 2 -a 0 -i 7 -k RTR 
- -t 1.017392871 -s 11 -d 27 -p DSR -e 44 -c 2 -a 0 -i 7 -k RTR
h -t 1.017392871 -s 11 -d 27 -p DSR -e 44 -c 2 -a 0 -i 7 -k RTR
r -t 1.017414374 -s 18 -d -1 -p ACK -e 38 -c 2 -a 0 -i 0 -k MAC
+ -t 1.017603773 -s 2 -d -1 -p RTS -e 44 -c 2 -a 0 -i 0 -k MAC 
- -t 1.017603773 -s 2 -d -1 -p RTS -e 44 -c 2 -a 0 -i 0 -k MAC
h -t 1.017603773 -s 2 -d -1 -p RTS -e 44 -c 2 -a 0 -i 0 -k MAC
r -t 1.017956374 -s 18 -d -1 -p RTS -e 44 -c 2 -a 0 -i 0 -k MAC
+ -t 1.017966374 -s 18 -d -1 -p CTS -e 38 -c 2 -a 0 -i 0 -k MAC 
- -t 1.017966374 -s 18 -d -1 -p CTS -e 38 -c 2 -a 0 -i 0 -k MAC
h -t 1.017966374 -s 18 -d -1 -p CTS -e 38 -c 2 -a 0 -i 0 -k MAC
r -t 1.018270975 -s 2 -d -1 -p CTS -e 38 -c 2 -a 0 -i 0 -k MAC
+ -t 1.018280975 -s 2 -d 18 -p tcp -e 1634 -c 2 -a 0 -i 9 -k MAC 
- -t 1.018280975 -s 2 -d 18 -p tcp -e 1634 -c 2 -a 0 -i 9 -k MAC
h -t 1.018280975 -s 2 -d 18 -p tcp -e 1634 -c 2 -a 0 -i 9 -k MAC
r -t 1.031353576 -s 18 -d 18 -p tcp -e 1576 -c 2 -a 0 -i 9 -k MAC
+ -t 1.031363576 -s 18 -d -1 -p ACK -e 38 -c 2 -a 0 -i 0 -k MAC 
- -t 1.031363576 -s 18 -d -1 -p ACK -e 38 -c 2 -a 0 -i 0 -k MAC
h -t 1.031363576 -s 18 -d -1 -p ACK -e 38 -c 2 -a 0 -i 0 -k MAC
r -t 1.031378576 -s 18 -d 18 -p tcp -e 1540 -c 2 -a 0 -i 9 -k AGT
+ -t 1.031378576 -s 18 -d -1 -p ack -e 40 -c 2 -a 0 -i 11 -k AGT 
- -t 1.031378576 -s 18 -d -1 -p ack -e 40 -c 2 -a 0 -i 11 -k AGT
h -t 1.031378576 -s 18 -d -1 -p ack -e 40 -c 2 -a 0 -i 11 -k AGT
+ -t 1.031378576 -s 18 -d 2 -p ack -e 76 -c 2 -a 0 -i 11 -k RTR 
- -t 1.031378576 -s 18 -d 2 -p ack -e 76 -c 2 -a 0 -i 11 -k RTR
h -t 1.031378576 -s 18 -d 2 -p ack -e 76 -c 2 -a 0 -i 11 -k RTR
r -t 1.031668177 -s 2 -d -1 -p ACK -e 38 -c 2 -a 0 -i 0 -k MAC
+ -t 1.032038177 -s 2 -d -1 -p RTS -e 44 -c 2 -a 0 -i 0 -k MAC 
- -t 1.032038177 -s 2 -d -1 -p RTS -e 44 -c 2 -a 0 -i 0 -k MAC
h -t 1.032038177 -s 2 -d -1 -p RTS -e 44 -c 2 -a 0 -i 0 -k MAC
r -t 1.032390778 -s 18 -d -1 -p RTS -e 44 -c 2 -a 0 -i 0 -k MAC
+ -t 1.032400778 -s 18 -d -1 -p CTS -e 38 -c 2 -a 0 -i 0 -k MAC 
- -t 1.032400778 -s 18 -d -1 -p CTS -e 38 -c 2 -a 0 -i 0 -k MAC
h -t 1.032400778 -s 18 -d -1 -p CTS -e 38 -c 2 -a 0 -i 0 -k MAC
r -t 1.032705379 -s 2 -d -1 -p CTS -e 38 -c 2 -a 0 -i 0 -k MAC
+ -t 1.032715379 -s 2 -d 18 -p tcp -e 1634 -c 2 -a 0 -i 10 -k MAC 
- -t 1.032715379 -s 2 -d 18 -p tcp -e 1634 -c 2 -a 0 -i 10 -k MAC
h -t 1.032715379 -s 2 -d 18 -p tcp -e 1634 -c 2 -a 0 -i 10 -k MAC
r -t 1.045787979 -s 18 -d 18 -p tcp -e 1576 -c 2 -a 0 -i 10 -k MAC
+ -t 1.045797979 -s 18 -d -1 -p ACK -e 38 -c 2 -a 0 -i 0 -k MAC 
- -t 1.045797979 -s 18 -d -1 -p ACK -e 38 -c 2 -a 0 -i 0 -k MAC
h -t 1.045797979 -s 18 -d -1 -p ACK -e 38 -c 2 -a 0 -i 0 -k MAC
r -t 1.045812979 -s 18 -d 18 -p tcp -e 1540 -c 2 -a 0 -i 10 -k AGT
+ -t 1.045812979 -s 18 -d -1 -p ack -e 40 -c 2 -a 0 -i 12 -k AGT 
- -t 1.045812979 -s 18 -d -1 -p ack -e 40 -c 2 -a 0 -i 12 -k AGT
h -t 1.045812979 -s 18 -d -1 -p ack -e 40 -c 2 -a 0 -i 12 -k AGT
+ -t 1.045812979 -s 18 -d 2 -p ack -e 76 -c 2 -a 0 -i 12 -k RTR 
- -t 1.045812979 -s 18 -d 2 -p ack -e 76 -c 2 -a 0 -i 12 -k RTR
h -t 1.045812979 -s 18 -d 2 -p ack -e 76 -c 2 -a 0 -i 12 -k RTR
r -t 1.046102580 -s 2 -d -1 -p ACK -e 38 -c 2 -a 0 -i 0 -k MAC
+ -t 1.046191979 -s 18 -d -1 -p RTS -e 44 -c 2 -a 0 -i 0 -k MAC 
- -t 1.046191979 -s 18 -d -1 -p RTS -e 44 -c 2 -a 0 -i 0 -k MAC
h -t 1.046191979 -s 18 -d -1 -p RTS -e 44 -c 2 -a 0 -i 0 -k MAC
r -t 1.046544580 -s 2 -d -1 -p RTS -e 44 -c 2 -a 0 -i 0 -k MAC
+ -t 1.046554580 -s 2 -d -1 -p CTS -e 38 -c 2 -a 0 -i 0 -k MAC 
- -t 1.046554580 -s 2 -d -1 -p CTS -e 38 -c 2 -a 0 -i 0 -k MAC
h -t 1.046554580 -s 2 -d -1 -p CTS -e 38 -c 2 -a 0 -i 0 -k MAC
r -t 1.046859181 -s 18 -d -1 -p CTS -e 38 -c 2 -a 0 -i 0 -k MAC
+ -t 1.046869181 -s 18 -d 2 -p ack -e 134 -c 2 -a 0 -i 11 -k MAC 
- -t 1.046869181 -s 18 -d 2 -p ack -e 134 -c 2 -a 0 -i 11 -k MAC
h -t 1.046869181 -s 18 -d 2 -p ack -e 134 -c 2 -a 0 -i 11 -k MAC
r -t 1.047941782 -s 2 -d 2 -p ack -e 76 -c 2 -a 0 -i 11 -k MAC
+ -t 1.047951782 -s 2 -d -1 -p ACK -e 38 -c 2 -a 0 -i 0 -k MAC 
- -t 1.047951782 -s 2 -d -1 -p ACK -e 38 -c 2 -a 0 -i 0 -k MAC
h -t 1.047951782 -s 2 -d -1 -p ACK -e 38 -c 2 -a 0 -i 0 -k MAC
r -t 1.047966782 -s 2 -d 2 -p ack -e 40 -c 2 -a 0 -i 11 -k AGT
+ -t 1.047966782 -s 2 -d -1 -p tcp -e 1540 -c 2 -a 0 -i 13 -k AGT 
- -t 1.047966782 -s 2 -d -1 -p tcp -e 1540 -c 2 -a 0 -i 13 -k AGT
h -t 1.047966782 -s 2 -d -1 -p tcp -e 1540 -c 2 -a 0 -i 13 -k AGT
+ -t 1.047966782 -s 2 -d -1 -p tcp -e 1540 -c 2 -a 0 -i 14 -k AGT 
- -t 1.047966782 -s 2 -d -1 -p tcp -e 1540 -c 2 -a 0 -i 14 -k AGT
h -t 1.047966782 -s 2 -d -1 -p tcp -e 1540 -c 2 -a 0 -i 14 -k AGT
+ -t 1.047966782 -s 2 -d 18 -p tcp -e 1560 -c 2 -a 0 -i 13 -k RTR 
- -t 1.047966782 -s 2 -d 18 -p tcp -e 1560 -c 2 -a 0 -i 13 -k RTR
h -t 1.047966782 -s 2 -d 18 -p tcp -e 1560 -c 2 -a 0 -i 13 -k RTR
+ -t 1.047966782 -s 2 -d 18 -p tcp -e 1560 -c 2 -a 0 -i 14 -k RTR 
- -t 1.047966782 -s 2 -d 18 -p tcp -e 1560 -c 2 -a 0 -i 14 -k RTR
h -t 1.047966782 -s 2 -d 18 -p tcp -e 1560 -c 2 -a 0 -i 14 -k RTR
r -t 1.048256383 -s 18 -d -1 -p ACK -e 38 -c 2 -a 0 -i 0 -k MAC
+ -t 1.048466383 -s 18 -d -1 -p RTS -e 44 -c 2 -a 0 -i 0 -k MAC 
- -t 1.048466383 -s 18 -d -1 -p RTS -e 44 -c 2 -a 0 -i 0 -k MAC
h -t 1.048466383 -s 18 -d -1 -p RTS -e 44 -c 2 -a 0 -i 0 -k MAC
r -t 1.048818984 -s 2 -d -1 -p RTS -e 44 -c 2 -a 0 -i 0 -k MAC
+ -t 1.048828984 -s 2 -d -1 -p CTS -e 38 -c 2 -a 0 -i 0 -k MAC 
- -t 1.048828984 -s 2 -d -1 -p CTS -e 38 -c 2 -a 0 -i 0 -k MAC
h -t 1.048828984 -s 2 -d -1 -p CTS -e 38 -c 2 -a 0 -i 0 -k MAC
r -t 1.049133585 -s 18 -d -1 -p CTS -e 38 -c 2 -a 0 -i 0 -k MAC
+ -t 1.049143585 -s 18 -d 2 -p ack -e 134 -c 2 -a 0 -i 12 -k MAC 
- -t 1.049143585 -s 18 -d 2 -p ack -e 134 -c 2 -a 0 -i 12 -k MAC
h -t 1.049143585 -s 18 -d 2 -p ack -e 134 -c 2 -a 0 -i 12 -k MAC
r -t 1.050216186 -s 2 -d 2 -p ack -e 76 -c 2 -a 0 -i 12 -k MAC
+ -t 1.050226186 -s 2 -d -1 -p ACK -e 38 -c 2 -a 0 -i 0 -k MAC 
- -t 1.050226186 -s 2 -d -1 -p ACK -e 38 -c 2 -a 0 -i 0 -k MAC
h -t 1.050226186 -s 2 -d -1 -p ACK -e 38 -c 2 -a 0 -i 0 -k MAC
r -t 1.050241186 -s 2 -d 2 -p ack -e 40 -c 2 -a 0 -i 12 -k AGT
+ -t 1.050241186 -s 2 -d -1 -p tcp -e 1540 -c 2 -a 0 -i 15 -k AGT 
- -t 1.050241186 -s 2 -d -1 -p tcp -e 1540 -c 2 -a 0 -i 15 -k AGT
h -t 1.050241186 -s 2 -d -1 -p tcp -e 1540 -c 2 -a 0 -i 15 -k AGT
+ -t 1.050241186 -s 2 -d -1 -p tcp -e 1540 -c 2 -a 0 -i 16 -k AGT 
- -t 1.050241186 -s 2 -d -1 -p tcp -e 1540 -c 2 -a 0 -i 16 -k AGT
h -t 1.050241186 -s 2 -d -1 -p tcp -e 1540 -c 2 -a 0 -i 16 -k AGT
+ -t 1.050241186 -s 2 -d 18 -p tcp -e 1560 -c 2 -a 0 -i 15 -k RTR 
- -t 1.050241186 -s 2 -d 18 -p tcp -e 1560 -c 2 -a 0 -i 15 -k RTR
h -t 1.050241186 -s 2 -d 18 -p tcp -e 1560 -c 2 -a 0 -i 15 -k RTR
+ -t 1.050241186 -s 2 -d 18 -p tcp -e 1560 -c 2 -a 0 -i 16 -k RTR 
- -t 1.050241186 -s 2 -d 18 -p tcp -e 1560 -c 2 -a 0 -i 16 -k RTR
h -t 1.050241186 -s 2 -d 18 -p tcp -e 1560 -c 2 -a 0 -i 16 -k RTR
r -t 1.050530787 -s 18 -d -1 -p ACK -e 38 -c 2 -a 0 -i 0 -k MAC
+ -t 1.050620186 -s 2 -d -1 -p RTS -e 44 -c 2 -a 0 -i 0 -k MAC 
- -t 1.050620186 -s 2 -d -1 -p RTS -e 44 -c 2 -a 0 -i 0 -k MAC
h -t 1.050620186 -s 2 -d -1 -p RTS -e 44 -c 2 -a 0 -i 0 -k MAC
r -t 1.050972787 -s 18 -d -1 -p RTS -e 44 -c 2 -a 0 -i 0 -k MAC
+ -t 1.050982787 -s 18 -d -1 -p CTS -e 38 -c 2 -a 0 -i 0 -k MAC 
- -t 1.050982787 -s 18 -d -1 -p CTS -e 38 -c 2 -a 0 -i 0 -k MAC
h -t 1.050982787 -s 18 -d -1 -p CTS -e 38 -c 2 -a 0 -i 0 -k MAC
r -t 1.051287388 -s 2 -d -1 -p CTS -e 38 -c 2 -a 0 -i 0 -k MAC
+ -t 1.051297388 -s 2 -d 18 -p tcp -e 1618 -c 2 -a 0 -i 13 -k MAC 
- -t 1.051297388 -s 2 -d 18 -p tcp -e 1618 -c 2 -a 0 -i 13 -k MAC
h -t 1.051297388 -s 2 -d 18 -p tcp -e 1618 -c 2 -a 0 -i 13 -k MAC
r -t 1.064241989 -s 18 -d 18 -p tcp -e 1560 -c 2 -a 0 -i 13 -k MAC
+ -t 1.064251989 -s 18 -d -1 -p ACK -e 38 -c 2 -a 0 -i 0 -k MAC 
- -t 1.064251989 -s 18 -d -1 -p ACK -e 38 -c 2 -a 0 -i 0 -k MAC
h -t 1.064251989 -s 18 -d -1 -p ACK -e 38 -c 2 -a 0 -i 0 -k MAC
r -t 1.064266989 -s 18 -d 18 -p tcp -e 1540 -c 2 -a 0 -i 13 -k AGT
+ -t 1.064266989 -s 18 -d -1 -p ack -e 40 -c 2 -a 0 -i 18 -k AGT 
- -t 1.064266989 -s 18 -d -1 -p ack -e 40 -c 2 -a 0 -i 18 -k AGT
h -t 1.064266989 -s 18 -d -1 -p ack -e 40 -c 2 -a 0 -i 18 -k AGT
+ -t 1.064266989 -s 18 -d 2 -p ack -e 60 -c 2 -a 0 -i 18 -k RTR 
- -t 1.064266989 -s 18 -d 2 -p ack -e 60 -c 2 -a 0 -i 18 -k RTR
h -t 1.064266989 -s 18 -d 2 -p ack -e 60 -c 2 -a 0 -i 18 -k RTR
r -t 1.064556590 -s 2 -d -1 -p ACK -e 38 -c 2 -a 0 -i 0 -k MAC
+ -t 1.065105989 -s 18 -d -1 -p RTS -e 44 -c 2 -a 0 -i 0 -k MAC 
- -t 1.065105989 -s 18 -d -1 -p RTS -e 44 -c 2 -a 0 -i 0 -k MAC
h -t 1.065105989 -s 18 -d -1 -p RTS -e 44 -c 2 -a 0 -i 0 -k MAC
r -t 1.065458590 -s 2 -d -1 -p RTS -e 44 -c 2 -a 0 -i 0 -k MAC
+ -t 1.065468590 -s 2 -d -1 -p CTS -e 38 -c 2 -a 0 -i 0 -k MAC 
- -t 1.065468590 -s 2 -d -1 -p CTS -e 38 -c 2 -a 0 -i 0 -k MAC
h -t 1.065468590 -s 2 -d -1 -p CTS -e 38 -c 2 -a 0 -i 0 -k MAC
r -t 1.065773191 -s 18 -d -1 -p CTS -e 38 -c 2 -a 0 -i 0 -k MAC
+ -t 1.065783191 -s 18 -d 2 -p ack -e 118 -c 2 -a 0 -i 18 -k MAC 
- -t 1.065783191 -s 18 -d 2 -p ack -e 118 -c 2 -a 0 -i 18 -k MAC
h -t 1.065783191 -s 18 -d 2 -p ack -e 118 -c 2 -a 0 -i 18 -k MAC
r -t 1.066727792 -s 2 -d 2 -p ack -e 60 -c 2 -a 0 -i 18 -k MAC
+ -t 1.066737792 -s 2 -d -1 -p ACK -e 38 -c 2 -a 0 -i 0 -k MAC 
- -t 1.066737792 -s 2 -d -1 -p ACK -e 38 -c 2 -a 0 -i 0 -k MAC
h -t 1.066737792 -s 2 -d -1 -p ACK -e 38 -c 2 -a 0 -i 0 -k MAC
r -t 1.066752792 -s 2 -d 2 -p ack -e 40 -c 2 -a 0 -i 18 -k AGT
+ -t 1.066752792 -s 2 -d -1 -p tcp -e 1540 -c 2 -a 0 -i 19 -k AGT 
- -t 1.066752792 -s 2 -d -1 -p tcp -e 1540 -c 2 -a 0 -i 19 -k AGT
h -t 1.066752792 -s 2 -d -1 -p tcp -e 1540 -c 2 -a 0 -i 19 -k AGT
+ -t 1.066752792 -s 2 -d -1 -p tcp -e 1540 -c 2 -a 0 -i 20 -k AGT 
- -t 1.066752792 -s 2 -d -1 -p tcp -e 1540 -c 2 -a 0 -i 20 -k AGT
h -t 1.066752792 -s 2 -d -1 -p tcp -e 1540 -c 2 -a 0 -i 20 -k AGT
+ -t 1.066752792 -s 2 -d 18 -p tcp -e 1560 -c 2 -a 0 -i 19 -k RTR 
- -t 1.066752792 -s 2 -d 18 -p tcp -e 1560 -c 2 -a 0 -i 19 -k RTR
h -t 1.066752792 -s 2 -d 18 -p tcp -e 1560 -c 2 -a 0 -i 19 -k RTR
+ -t 1.066752792 -s 2 -d 18 -p tcp -e 1560 -c 2 -a 0 -i 20 -k RTR 
- -t 1.066752792 -s 2 -d 18 -p tcp -e 1560 -c 2 -a 0 -i 20 -k RTR
h -t 1.066752792 -s 2 -d 18 -p tcp -e 1560 -c 2 -a 0 -i 20 -k RTR
r -t 1.067042392 -s 18 -d -1 -p ACK -e 38 -c 2 -a 0 -i 0 -k MAC
+ -t 1.067191792 -s 2 -d -1 -p RTS -e 44 -c 2 -a 0 -i 0 -k MAC 
- -t 1.067191792 -s 2 -d -1 -p RTS -e 44 -c 2 -a 0 -i 0 -k MAC
h -t 1.067191792 -s 2 -d -1 -p RTS -e 44 -c 2 -a 0 -i 0 -k MAC
r -t 1.067544392 -s 18 -d -1 -p RTS -e 44 -c 2 -a 0 -i 0 -k MAC
+ -t 1.067554392 -s 18 -d -1 -p CTS -e 38 -c 2 -a 0 -i 0 -k MAC 
- -t 1.067554392 -s 18 -d -1 -p CTS -e 38 -c 2 -a 0 -i 0 -k MAC
h -t 1.067554392 -s 18 -d -1 -p CTS -e 38 -c 2 -a 0 -i 0 -k MAC
r -t 1.067858993 -s 2 -d -1 -p CTS -e 38 -c 2 -a 0 -i 0 -k MAC
+ -t 1.067868993 -s 2 -d 18 -p tcp -e 1618 -c 2 -a 0 -i 14 -k MAC 
- -t 1.067868993 -s 2 -d 18 -p tcp -e 1618 -c 2 -a 0 -i 14 -k MAC
h -t 1.067868993 -s 2 -d 18 -p tcp -e 1618 -c 2 -a 0 -i 14 -k MAC
+ -t 1.069857663 -s 27 -d -1 -p DSR -e 32 -c 2 -a 0 -i 17 -k RTR 
- -t 1.069857663 -s 27 -d -1 -p DSR -e 32 -c 2 -a 0 -i 17 -k RTR
h -t 1.069857663 -s 27 -d -1 -p DSR -e 32 -c 2 -a 0 -i 17 -k RTR
r -t 1.080813594 -s 18 -d 18 -p tcp -e 1560 -c 2 -a 0 -i 14 -k MAC
+ -t 1.080823594 -s 18 -d -1 -p ACK -e 38 -c 2 -a 0 -i 0 -k MAC 
- -t 1.080823594 -s 18 -d -1 -p ACK -e 38 -c 2 -a 0 -i 0 -k MAC
h -t 1.080823594 -s 18 -d -1 -p ACK -e 38 -c 2 -a 0 -i 0 -k MAC
r -t 1.080838594 -s 18 -d 18 -p tcp -e 1540 -c 2 -a 0 -i 14 -k AGT
+ -t 1.080838594 -s 18 -d -1 -p ack -e 40 -c 2 -a 0 -i 21 -k AGT 
- -t 1.080838594 -s 18 -d -1 -p ack -e 40 -c 2 -a 0 -i 21 -k AGT
h -t 1.080838594 -s 18 -d -1 -p ack -e 40 -c 2 -a 0 -i 21 -k AGT
+ -t 1.080838594 -s 18 -d 2 -p ack -e 60 -c 2 -a 0 -i 21 -k RTR 
- -t 1.080838594 -s 18 -d 2 -p ack -e 60 -c 2 -a 0 -i 21 -k RTR
h -t 1.080838594 -s 18 -d 2 -p ack -e 60 -c 2 -a 0 -i 21 -k RTR
r -t 1.081128195 -s 2 -d -1 -p ACK -e 38 -c 2 -a 0 -i 0 -k MAC
+ -t 1.081357594 -s 18 -d -1 -p RTS -e 44 -c 2 -a 0 -i 0 -k MAC 
- -t 1.081357594 -s 18 -d -1 -p RTS -e 44 -c 2 -a 0 -i 0 -k MAC
h -t 1.081357594 -s 18 -d -1 -p RTS -e 44 -c 2 -a 0 -i 0 -k MAC
+ -t 1.081358195 -s 2 -d -1 -p RTS -e 44 -c 2 -a 0 -i 0 -k MAC 
- -t 1.081358195 -s 2 -d -1 -p RTS -e 44 -c 2 -a 0 -i 0 -k MAC
h -t 1.081358195 -s 2 -d -1 -p RTS -e 44 -c 2 -a 0 -i 0 -k MAC
+ -t 1.082304722 -s 11 -d -1 -p ARP -e 86 -c 2 -a 0 -i 0 -k MAC 
- -t 1.082304722 -s 11 -d -1 -p ARP -e 86 -c 2 -a 0 -i 0 -k MAC
h -t 1.082304722 -s 11 -d -1 -p ARP -e 86 -c 2 -a 0 -i 0 -k MAC
r -t 1.082992889 -s 5 -d -1 -p ARP -e 28 -c 2 -a 0 -i 0 -k MAC
r -t 1.082992889 -s 10 -d -1 -p ARP -e 28 -c 2 -a 0 -i 0 -k MAC
r -t 1.082992889 -s 17 -d -1 -p ARP -e 28 -c 2 -a 0 -i 0 -k MAC
r -t 1.082992958 -s 16 -d -1 -p ARP -e 28 -c 2 -a 0 -i 0 -k MAC
r -t 1.082992958 -s 4 -d -1 -p ARP -e 28 -c 2 -a 0 -i 0 -k MAC
r -t 1.082993056 -s 9 -d -1 -p ARP -e 28 -c 2 -a 0 -i 0 -k MAC
r -t 1.082993056 -s 23 -d -1 -p ARP -e 28 -c 2 -a 0 -i 0 -k MAC
r -t 1.082993095 -s 22 -d -1 -p ARP -e 28 -c 2 -a 0 -i 0 -k MAC
r -t 1.082993095 -s 15 -d -1 -p ARP -e 28 -c 2 -a 0 -i 0 -k MAC
r -t 1.082993095 -s 3 -d -1 -p ARP -e 28 -c 2 -a 0 -i 0 -k MAC
r -t 1.082993194 -s 21 -d -1 -p ARP -e 28 -c 2 -a 0 -i 0 -k MAC
r -t 1.082993222 -s 8 -d -1 -p ARP -e 28 -c 2 -a 0 -i 0 -k MAC
r -t 1.082993222 -s 29 -d -1 -p ARP -e 28 -c 2 -a 0 -i 0 -k MAC
r -t 1.082993249 -s 28 -d -1 -p ARP -e 28 -c 2 -a 0 -i 0 -k MAC
r -t 1.082993249 -s 14 -d -1 -p ARP -e 28 -c 2 -a 0 -i 0 -k MAC
r -t 1.082993249 -s 2 -d -1 -p ARP -e 28 -c 2 -a 0 -i 0 -k MAC
r -t 1.082993323 -s 27 -d -1 -p ARP -e 28 -c 2 -a 0 -i 0 -k MAC
r -t 1.082993323 -s 20 -d -1 -p ARP -e 28 -c 2 -a 0 -i 0 -k MAC
r -t 1.082993389 -s 7 -d -1 -p ARP -e 28 -c 2 -a 0 -i 0 -k MAC
r -t 1.082993409 -s 13 -d -1 -p ARP -e 28 -c 2 -a 0 -i 0 -k MAC
r -t 1.082993409 -s 1 -d -1 -p ARP -e 28 -c 2 -a 0 -i 0 -k MAC
r -t 1.082993429 -s 26 -d -1 -p ARP -e 28 -c 2 -a 0 -i 0 -k MAC
r -t 1.082993468 -s 19 -d -1 -p ARP -e 28 -c 2 -a 0 -i 0 -k MAC
r -t 1.082993556 -s 25 -d -1 -p ARP -e 28 -c 2 -a 0 -i 0 -k MAC
r -t 1.082993556 -s 6 -d -1 -p ARP -e 28 -c 2 -a 0 -i 0 -k MAC
+ -t 1.083123249 -s 2 -d -1 -p RTS -e 44 -c 2 -a 0 -i 0 -k MAC 
- -t 1.083123249 -s 2 -d -1 -p RTS -e 44 -c 2 -a 0 -i 0 -k MAC
h -t 1.083123249 -s 2 -d -1 -p RTS -e 44 -c 2 -a 0 -i 0 -k MAC
r -t 1.083475850 -s 18 -d -1 -p RTS -e 44 -c 2 -a 0 -i 0 -k MAC
+ -t 1.083485850 -s 18 -d -1 -p CTS -e 38 -c 2 -a 0 -i 0 -k MAC 
- -t 1.083485850 -s 18 -d -1 -p CTS -e 38 -c 2 -a 0 -i 0 -k MAC
h -t 1.083485850 -s 18 -d -1 -p CTS -e 38 -c 2 -a 0 -i 0 -k MAC
r -t 1.083790451 -s 2 -d -1 -p CTS -e 38 -c 2 -a 0 -i 0 -k MAC
+ -t 1.083800451 -s 2 -d 18 -p tcp -e 1618 -c 2 -a 0 -i 15 -k MAC 
- -t 1.083800451 -s 2 -d 18 -p tcp -e 1618 -c 2 -a 0 -i 15 -k MAC
h -t 1.083800451 -s 2 -d 18 -p tcp -e 1618 -c 2 -a 0 -i 15 -k MAC
r -t 1.096745052 -s 18 -d 18 -p tcp -e 1560 -c 2 -a 0 -i 15 -k MAC
+ -t 1.096755052 -s 18 -d -1 -p ACK -e 38 -c 2 -a 0 -i 0 -k MAC 
- -t 1.096755052 -s 18 -d -1 -p ACK -e 38 -c 2 -a 0 -i 0 -k MAC
h -t 1.096755052 -s 18 -d -1 -p ACK -e 38 -c 2 -a 0 -i 0 -k MAC
r -t 1.096770052 -s 18 -d 18 -p tcp -e 1540 -c 2 -a 0 -i 15 -k AGT
+ -t 1.096770052 -s 18 -d -1 -p ack -e 40 -c 2 -a 0 -i 23 -k AGT 
- -t 1.096770052 -s 18 -d -1 -p ack -e 40 -c 2 -a 0 -i 23 -k AGT
h -t 1.096770052 -s 18 -d -1 -p ack -e 40 -c 2 -a 0 -i 23 -k AGT
+ -t 1.096770052 -s 18 -d 2 -p ack -e 60 -c 2 -a 0 -i 23 -k RTR 
- -t 1.096770052 -s 18 -d 2 -p ack -e 60 -c 2 -a 0 -i 23 -k RTR
h -t 1.096770052 -s 18 -d 2 -p ack -e 60 -c 2 -a 0 -i 23 -k RTR
r -t 1.097059653 -s 2 -d -1 -p ACK -e 38 -c 2 -a 0 -i 0 -k MAC
+ -t 1.097289579 -s 27 -d -1 -p DSR -e 90 -c 2 -a 0 -i 17 -k MAC 