Sconfig 0.00000 tap: on snoop: rts? on errs? on
Sconfig 0.00000 salvage: on !bd replies? on
Sconfig 0.00000 grat error: on grat reply: on
Sconfig 0.00000 $reply for props: on ring 0 search: on
Sconfig 0.00000 using MOBICACHE
s -t 1.000000000 -Hs 2 -Hd -2 -Ni 2 -Nx 492.00 -Ny 421.00 -Nz 0.00 -Ne -1.000000 -Nl AGT -Nw --- -Ma 0 -Md 0 -Ms 0 -Mt 0 -Is 2.0 -Id 18.0 -It tcp -Il 40 -If 0 -Ii 0 -Iv 32 -Pn tcp -Ps 0 -Pa 0 -Pf 0 -Po 0 
r -t 1.000000000 -Hs 2 -Hd -2 -Ni 2 -Nx 492.00 -Ny 421.00 -Nz 0.00 -Ne -1.000000 -Nl RTR -Nw --- -Ma 0 -Md 0 -Ms 0 -Mt 0 -Is 2.0 -Id 18.0 -It tcp -Il 40 -If 0 -Ii 0 -Iv 32 -Pn tcp -Ps 0 -Pa 0 -Pf 0 -Po 0 
s -t 1.000000000 -Hs 27 -Hd -2 -Ni 27 -Nx 542.00 -Ny 221.00 -Nz 0.00 -Ne -1.000000 -Nl AGT -Nw --- -Ma 0 -Md 0 -Ms 0 -Mt 0 -Is 27.0 -Id 11.0 -It tcp -Il 40 -If 0 -Ii 2 -Iv 32 -Pn tcp -Ps 0 -Pa 0 -Pf 0 -Po 0 
r -t 1.000000000 -Hs 27 -Hd -2 -Ni 27 -Nx 542.00 -Ny 221.00 -Nz 0.00 -Ne -1.000000 -Nl RTR -Nw --- -Ma 0 -Md 0 -Ms 0 -Mt 0 -Is 27.0 -Id 11.0 -It tcp -Il 40 -If 0 -Ii 2 -Iv 32 -Pn tcp -Ps 0 -Pa 0 -Pf 0 -Po 0 
s -t 1.000505146 -Hs 2 -Hd -1 -Ni 2 -Nx 492.00 -Ny 421.00 -Nz 0.00 -Ne -1.000000 -Nl RTR -Nw --- -Ma 0 -Md 0 -Ms 0 -Mt 0 -Is 2.255 -Id 18.255 -It DSR -Il 32 -If 0 -Ii 1 -Iv 32 -P dsr -Ph 1 -Pq 1 -Ps 1 -Pp 0 -Pn 1 -Pl 0 -Pe 0->0 -Pw 0 -Pm 0 -Pc 0 -Pb 0->0 
s -t 1.000740146 -Hs 2 -Hd -1 -Ni 2 -Nx 492.00 -Ny 421.00 -Nz 0.00 -Ne -1.000000 -Nl MAC -Nw --- -Ma 0 -Md ffffffff -Ms 2 -Mt 800 -Is 2.255 -Id 18.255 -It DSR -Il 90 -If 0 -Ii 1 -Iv 32 -P dsr -Ph 1 -Pq 1 -Ps 1 -Pp 0 -Pn 1 -Pl 0 -Pe 0->0 -Pw 0 -Pm 0 -Pc 0 -Pb 0->0 
r -t 1.001460313 -Hs 1 -Hd -1 -Ni 1 -Nx 442.00 -Ny 421.00 -Nz 0.00 -Ne -1.000000 -Nl MAC -Nw --- -Ma 0 -Md ffffffff -Ms 2 -Mt 800 -Is 2.255 -Id 18.255 -It DSR -Il 32 -If 0 -Ii 1 -Iv 32 -P dsr -Ph 1 -Pq 1 -Ps 1 -Pp 0 -Pn 1 -Pl 0 -Pe 0->0 -Pw 0 -Pm 0 -Pc 0 -Pb 0->0 
r -t 1.001460313 -Hs 8 -Hd -1 -Ni 8 -Nx 492.00 -Ny 371.00 -Nz 0.00 -Ne -1.000000 -Nl MAC -Nw --- -Ma 0 -Md ffffffff -Ms 2 -Mt 800 -Is 2.255 -Id 18.255 -It DSR -Il 32 -If 0 -Ii 1 -Iv 32 -P dsr -Ph 1 -Pq 1 -Ps 1 -Pp 0 -Pn 1 -Pl 0 -Pe 0->0 -Pw 0 -Pm 0 -Pc 0 -Pb 0->0 
r -t 1.001460313 -Hs 3 -Hd -1 -Ni 3 -Nx 542.00 -Ny 421.00 -Nz 0.00 -Ne -1.000000 -Nl MAC -Nw --- -Ma 0 -Md ffffffff -Ms 2 -Mt 800 -Is 2.255 -Id 18.255 -It DSR -Il 32 -If 0 -Ii 1 -Iv 32 -P dsr -Ph 1 -Pq 1 -Ps 1 -Pp 0 -Pn 1 -Pl 0 -Pe 0->0 -Pw 0 -Pm 0 -Pc 0 -Pb 0->0 
r -t 1.001460382 -Hs 7 -Hd -1 -Ni 7 -Nx 442.00 -Ny 371.00 -Nz 0.00 -Ne -1.000000 -Nl MAC -Nw --- -Ma 0 -Md ffffffff -Ms 2 -Mt 800 -Is 2.255 -Id 18.255 -It DSR -Il 32 -If 0 -Ii 1 -Iv 32 -P dsr -Ph 1 -Pq 1 -Ps 1 -Pp 0 -Pn 1 -Pl 0 -Pe 0->0 -Pw 0 -Pm 0 -Pc 0 -Pb 0->0 
r -t 1.001460382 -Hs 9 -Hd -1 -Ni 9 -Nx 542.00 -Ny 371.00 -Nz 0.00 -Ne -1.000000 -Nl MAC -Nw --- -Ma 0 -Md ffffffff -Ms 2 -Mt 800 -Is 2.255 -Id 18.255 -It DSR -Il 32 -If 0 -Ii 1 -Iv 32 -P dsr -Ph 1 -Pq 1 -Ps 1 -Pp 0 -Pn 1 -Pl 0 -Pe 0->0 -Pw 0 -Pm 0 -Pc 0 -Pb 0->0 
r -t 1.001460479 -Hs 0 -Hd -1 -Ni 0 -Nx 392.00 -Ny 421.00 -Nz 0.00 -Ne -1.000000 -Nl MAC -Nw --- -Ma 0 -Md ffffffff -Ms 2 -Mt 800 -Is 2.255 -Id 18.255 -It DSR -Il 32 -If 0 -Ii 1 -Iv 32 -P dsr -Ph 1 -Pq 1 -Ps 1 -Pp 0 -Pn 1 -Pl 0 -Pe 0->0 -Pw 0 -Pm 0 -Pc 0 -Pb 0->0 
r -t 1.001460479 -Hs 14 -Hd -1 -Ni 14 -Nx 492.00 -Ny 321.00 -Nz 0.00 -Ne -1.000000 -Nl MAC -Nw --- -Ma 0 -Md ffffffff -Ms 2 -Mt 800 -Is 2.255 -Id 18.255 -It DSR -Il 32 -If 0 -Ii 1 -Iv 32 -P dsr -Ph 1 -Pq 1 -Ps 1 -Pp 0 -Pn 1 -Pl 0 -Pe 0->0 -Pw 0 -Pm 0 -Pc 0 -Pb 0->0 
r -t 1.001460479 -Hs 4 -Hd -1 -Ni 4 -Nx 592.00 -Ny 421.00 -Nz 0.00 -Ne -1.000000 -Nl MAC -Nw --- -Ma 0 -Md ffffffff -Ms 2 -Mt 800 -Is 2.255 -Id 18.255 -It DSR -Il 32 -If 0 -Ii 1 -Iv 32 -P dsr -Ph 1 -Pq 1 -Ps 1 -Pp 0 -Pn 1 -Pl 0 -Pe 0->0 -Pw 0 -Pm 0 -Pc 0 -Pb 0->0 
r -t 1.001460519 -Hs 13 -Hd -1 -Ni 13 -Nx 442.00 -Ny 321.00 -Nz 0.00 -Ne -1.000000 -Nl MAC -Nw --- -Ma 0 -Md ffffffff -Ms 2 -Mt 800 -Is 2.255 -Id 18.255 -It DSR -Il 32 -If 0 -Ii 1 -Iv 32 -P dsr -Ph 1 -Pq 1 -Ps 1 -Pp 0 -Pn 1 -Pl 0 -Pe 0->0 -Pw 0 -Pm 0 -Pc 0 -Pb 0->0 
r -t 1.001460519 -Hs 6 -Hd -1 -Ni 6 -Nx 392.00 -Ny 371.00 -Nz 0.00 -Ne -1.000000 -Nl MAC -Nw --- -Ma 0 -Md ffffffff -Ms 2 -Mt 800 -Is 2.255 -Id 18.255 -It DSR -Il 32 -If 0 -Ii 1 -Iv 32 -P dsr -Ph 1 -Pq 1 -Ps 1 -Pp 0 -Pn 1 -Pl 0 -Pe 0->0 -Pw 0 -Pm 0 -Pc 0 -Pb 0->0 
r -t 1.001460519 -Hs 15 -Hd -1 -Ni 15 -Nx 542.00 -Ny 321.00 -Nz 0.00 -Ne -1.000000 -Nl MAC -Nw --- -Ma 0 -Md ffffffff -Ms 2 -Mt 800 -Is 2.255 -Id 18.255 -It DSR -Il 32 -If 0 -Ii 1 -Iv 32 -P dsr -Ph 1 -Pq 1 -Ps 1 -Pp 0 -Pn 1 -Pl 0 -Pe 0->0 -Pw 0 -Pm 0 -Pc 0 -Pb 0->0 
r -t 1.001460519 -Hs 10 -Hd -1 -Ni 10 -Nx 592.00 -Ny 371.00 -Nz 0.00 -Ne -1.000000 -Nl MAC -Nw --- -Ma 0 -Md ffffffff -Ms 2 -Mt 800 -Is 2.255 -Id 18.255 -It DSR -Il 32 -If 0 -Ii 1 -Iv 32 -P dsr -Ph 1 -Pq 1 -Ps 1 -Pp 0 -Pn 1 -Pl 0 -Pe 0->0 -Pw 0 -Pm 0 -Pc 0 -Pb 0->0 
r -t 1.001460617 -Hs 12 -Hd -1 -Ni 12 -Nx 392.00 -Ny 321.00 -Nz 0.00 -Ne -1.000000 -Nl MAC -Nw --- -Ma 0 -Md ffffffff -Ms 2 -Mt 800 -Is 2.255 -Id 18.255 -It DSR -Il 32 -If 0 -Ii 1 -Iv 32 -P dsr -Ph 1 -Pq 1 -Ps 1 -Pp 0 -Pn 1 -Pl 0 -Pe 0->0 -Pw 0 -Pm 0 -Pc 0 -Pb 0->0 
r -t 1.001460617 -Hs 16 -Hd -1 -Ni 16 -Nx 592.00 -Ny 321.00 -Nz 0.00 -Ne -1.000000 -Nl MAC -Nw --- -Ma 0 -Md ffffffff -Ms 2 -Mt 800 -Is 2.255 -Id 18.255 -It DSR -Il 32 -If 0 -Ii 1 -Iv 32 -P dsr -Ph 1 -Pq 1 -Ps 1 -Pp 0 -Pn 1 -Pl 0 -Pe 0->0 -Pw 0 -Pm 0 -Pc 0 -Pb 0->0 
r -t 1.001460646 -Hs 20 -Hd -1 -Ni 20 -Nx 492.00 -Ny 271.00 -Nz 0.00 -Ne -1.000000 -Nl MAC -Nw --- -Ma 0 -Md ffffffff -Ms 2 -Mt 800 -Is 2.255 -Id 18.255 -It DSR -Il 32 -If 0 -Ii 1 -Iv 32 -P dsr -Ph 1 -Pq 1 -Ps 1 -Pp 0 -Pn 1 -Pl 0 -Pe 0->0 -Pw 0 -Pm 0 -Pc 0 -Pb 0->0 
r -t 1.001460646 -Hs 5 -Hd -1 -Ni 5 -Nx 642.00 -Ny 421.00 -Nz 0.00 -Ne -1.000000 -Nl MAC -Nw --- -Ma 0 -Md ffffffff -Ms 2 -Mt 800 -Is 2.255 -Id 18.255 -It DSR -Il 32 -If 0 -Ii 1 -Iv 32 -P dsr -Ph 1 -Pq 1 -Ps 1 -Pp 0 -Pn 1 -Pl 0 -Pe 0->0 -Pw 0 -Pm 0 -Pc 0 -Pb 0->0 
r -t 1.001460673 -Hs 19 -Hd -1 -Ni 19 -Nx 442.00 -Ny 271.00 -Nz 0.00 -Ne -1.000000 -Nl MAC -Nw --- -Ma 0 -Md ffffffff -Ms 2 -Mt 800 -Is 2.255 -Id 18.255 -It DSR -Il 32 -If 0 -Ii 1 -Iv 32 -P dsr -Ph 1 -Pq 1 -Ps 1 -Pp 0 -Pn 1 -Pl 0 -Pe 0->0 -Pw 0 -Pm 0 -Pc 0 -Pb 0->0 
r -t 1.001460673 -Hs 21 -Hd -1 -Ni 21 -Nx 542.00 -Ny 271.00 -Nz 0.00 -Ne -1.000000 -Nl MAC -Nw --- -Ma 0 -Md ffffffff -Ms 2 -Mt 800 -Is 2.255 -Id 18.255 -It DSR -Il 32 -If 0 -Ii 1 -Iv 32 -P dsr -Ph 1 -Pq 1 -Ps 1 -Pp 0 -Pn 1 -Pl 0 -Pe 0->0 -Pw 0 -Pm 0 -Pc 0 -Pb 0->0 
r -t 1.001460673 -Hs 11 -Hd -1 -Ni 11 -Nx 642.00 -Ny 371.00 -Nz 0.00 -Ne -1.000000 -Nl MAC -Nw --- -Ma 0 -Md ffffffff -Ms 2 -Mt 800 -Is 2.255 -Id 18.255 -It DSR -Il 32 -If 0 -Ii 1 -Iv 32 -P dsr -Ph 1 -Pq 1 -Ps 1 -Pp 0 -Pn 1 -Pl 0 -Pe 0->0 -Pw 0 -Pm 0 -Pc 0 -Pb 0->0 
r -t 1.001460747 -Hs 18 -Hd -1 -Ni 18 -Nx 392.00 -Ny 271.00 -Nz 0.00 -Ne -1.000000 -Nl MAC -Nw --- -Ma 0 -Md ffffffff -Ms 2 -Mt 800 -Is 2.255 -Id 18.255 -It DSR -Il 32 -If 0 -Ii 1 -Iv 32 -P dsr -Ph 1 -Pq 1 -Ps 1 -Pp 0 -Pn 1 -Pl 0 -Pe 0->0 -Pw 0 -Pm 0 -Pc 0 -Pb 0->0 
r -t 1.001460747 -Hs 22 -Hd -1 -Ni 22 -Nx 592.00 -Ny 271.00 -Nz 0.00 -Ne -1.000000 -Nl MAC -Nw --- -Ma 0 -Md ffffffff -Ms 2 -Mt 800 -Is 2.255 -Id 18.255 -It DSR -Il 32 -If 0 -Ii 1 -Iv 32 -P dsr -Ph 1 -Pq 1 -Ps 1 -Pp 0 -Pn 1 -Pl 0 -Pe 0->0 -Pw 0 -Pm 0 -Pc 0 -Pb 0->0 
r -t 1.001460747 -Hs 17 -Hd -1 -Ni 17 -Nx 642.00 -Ny 321.00 -Nz 0.00 -Ne -1.000000 -Nl MAC -Nw --- -Ma 0 -Md ffffffff -Ms 2 -Mt 800 -Is 2.255 -Id 18.255 -It DSR -Il 32 -If 0 -Ii 1 -Iv 32 -P dsr -Ph 1 -Pq 1 -Ps 1 -Pp 0 -Pn 1 -Pl 0 -Pe 0->0 -Pw 0 -Pm 0 -Pc 0 -Pb 0->0 
r -t 1.001460813 -Hs 26 -Hd -1 -Ni 26 -Nx 492.00 -Ny 221.00 -Nz 0.00 -Ne -1.000000 -Nl MAC -Nw --- -Ma 0 -Md ffffffff -Ms 2 -Mt 800 -Is 2.255 -Id 18.255 -It DSR -Il 32 -If 0 -Ii 1 -Iv 32 -P dsr -Ph 1 -Pq 1 -Ps 1 -Pp 0 -Pn 1 -Pl 0 -Pe 0->0 -Pw 0 -Pm 0 -Pc 0 -Pb 0->0 
r -t 1.001460833 -Hs 25 -Hd -1 -Ni 25 -Nx 442.00 -Ny 221.00 -Nz 0.00 -Ne -1.000000 -Nl MAC -Nw --- -Ma 0 -Md ffffffff -Ms 2 -Mt 800 -Is 2.255 -Id 18.255 -It DSR -Il 32 -If 0 -Ii 1 -Iv 32 -P dsr -Ph 1 -Pq 1 -Ps 1 -Pp 0 -Pn 1 -Pl 0 -Pe 0->0 -Pw 0 -Pm 0 -Pc 0 -Pb 0->0 
r -t 1.001460833 -Hs 27 -Hd -1 -Ni 27 -Nx 542.00 -Ny 221.00 -Nz 0.00 -Ne -1.000000 -Nl MAC -Nw --- -Ma 0 -Md ffffffff -Ms 2 -Mt 800 -Is 2.255 -Id 18.255 -It DSR -Il 32 -If 0 -Ii 1 -Iv 32 -P dsr -Ph 1 -Pq 1 -Ps 1 -Pp 0 -Pn 1 -Pl 0 -Pe 0->0 -Pw 0 -Pm 0 -Pc 0 -Pb 0->0 
r -t 1.001460853 -Hs 23 -Hd -1 -Ni 23 -Nx 642.00 -Ny 271.00 -Nz 0.00 -Ne -1.000000 -Nl MAC -Nw --- -Ma 0 -Md ffffffff -Ms 2 -Mt 800 -Is 2.255 -Id 18.255 -It DSR -Il 32 -If 0 -Ii 1 -Iv 32 -P dsr -Ph 1 -Pq 1 -Ps 1 -Pp 0 -Pn 1 -Pl 0 -Pe 0->0 -Pw 0 -Pm 0 -Pc 0 -Pb 0->0 
r -t 1.001460891 -Hs 24 -Hd -1 -Ni 24 -Nx 392.00 -Ny 221.00 -Nz 0.00 -Ne -1.000000 -Nl MAC -Nw --- -Ma 0 -Md ffffffff -Ms 2 -Mt 800 -Is 2.255 -Id 18.255 -It DSR -Il 32 -If 0 -Ii 1 -Iv 32 -P dsr -Ph 1 -Pq 1 -Ps 1 -Pp 0 -Pn 1 -Pl 0 -Pe 0->0 -Pw 0 -Pm 0 -Pc 0 -Pb 0->0 
r -t 1.001460891 -Hs 28 -Hd -1 -Ni 28 -Nx 592.00 -Ny 221.00 -Nz 0.00 -Ne -1.000000 -Nl MAC -Nw --- -Ma 0 -Md ffffffff -Ms 2 -Mt 800 -Is 2.255 -Id 18.255 -It DSR -Il 32 -If 0 -Ii 1 -Iv 32 -P dsr -Ph 1 -Pq 1 -Ps 1 -Pp 0 -Pn 1 -Pl 0 -Pe 0->0 -Pw 0 -Pm 0 -Pc 0 -Pb 0->0 
r -t 1.001460979 -Hs 29 -Hd -1 -Ni 29 -Nx 642.00 -Ny 221.00 -Nz 0.00 -Ne -1.000000 -Nl MAC -Nw --- -Ma 0 -Md ffffffff -Ms 2 -Mt 800 -Is 2.255 -Id 18.255 -It DSR -Il 32 -If 0 -Ii 1 -Iv 32 -P dsr -Ph 1 -Pq 1 -Ps 1 -Pp 0 -Pn 1 -Pl 0 -Pe 0->0 -Pw 0 -Pm 0 -Pc 0 -Pb 0->0 
r -t 1.001485313 -Hs 1 -Hd -1 -Ni 1 -Nx 442.00 -Ny 421.00 -Nz 0.00 -Ne -1.000000 -Nl RTR -Nw --- -Ma 0 -Md ffffffff -Ms 2 -Mt 800 -Is 2.255 -Id 18.255 -It DSR -Il 32 -If 0 -Ii 1 -Iv 32 -P dsr -Ph 1 -Pq 1 -Ps 1 -Pp 0 -Pn 1 -Pl 0 -Pe 0->0 -Pw 0 -Pm 0 -Pc 0 -Pb 0->0 
r -t 1.001485313 -Hs 8 -Hd -1 -Ni 8 -Nx 492.00 -Ny 371.00 -Nz 0.00 -Ne -1.000000 -Nl RTR -Nw --- -Ma 0 -Md ffffffff -Ms 2 -Mt 800 -Is 2.255 -Id 18.255 -It DSR -Il 32 -If 0 -Ii 1 -Iv 32 -P dsr -Ph 1 -Pq 1 -Ps 1 -Pp 0 -Pn 1 -Pl 0 -Pe 0->0 -Pw 0 -Pm 0 -Pc 0 -Pb 0->0 
r -t 1.001485313 -Hs 3 -Hd -1 -Ni 3 -Nx 542.00 -Ny 421.00 -Nz 0.00 -Ne -1.000000 -Nl RTR -Nw --- -Ma 0 -Md ffffffff -Ms 2 -Mt 800 -Is 2.255 -Id 18.255 -It DSR -Il 32 -If 0 -Ii 1 -Iv 32 -P dsr -Ph 1 -Pq 1 -Ps 1 -Pp 0 -Pn 1 -Pl 0 -Pe 0->0 -Pw 0 -Pm 0 -Pc 0 -Pb 0->0 
r -t 1.001485382 -Hs 7 -Hd -1 -Ni 7 -Nx 442.00 -Ny 371.00 -Nz 0.00 -Ne -1.000000 -Nl RTR -Nw --- -Ma 0 -Md ffffffff -Ms 2 -Mt 800 -Is 2.255 -Id 18.255 -It DSR -Il 32 -If 0 -Ii 1 -Iv 32 -P dsr -Ph 1 -Pq 1 -Ps 1 -Pp 0 -Pn 1 -Pl 0 -Pe 0->0 -Pw 0 -Pm 0 -Pc 0 -Pb 0->0 
r -t 1.001485382 -Hs 9 -Hd -1 -Ni 9 -Nx 542.00 -Ny 371.00 -Nz 0.00 -Ne -1.000000 -Nl RTR -Nw --- -Ma 0 -Md ffffffff -Ms 2 -Mt 800 -Is 2.255 -Id 18.255 -It DSR -Il 32 -If 0 -Ii 1 -Iv 32 -P dsr -Ph 1 -Pq 1 -Ps 1 -Pp 0 -Pn 1 -Pl 0 -Pe 0->0 -Pw 0 -Pm 0 -Pc 0 -Pb 0->0 
r -t 1.001485479 -Hs 0 -Hd -1 -Ni 0 -Nx 392.00 -Ny 421.00 -Nz 0.00 -Ne -1.000000 -Nl RTR -Nw --- -Ma 0 -Md ffffffff -Ms 2 -Mt 800 -Is 2.255 -Id 18.255 -It DSR -Il 32 -If 0 -Ii 1 -Iv 32 -P dsr -Ph 1 -Pq 1 -Ps 1 -Pp 0 -Pn 1 -Pl 0 -Pe 0->0 -Pw 0 -Pm 0 -Pc 0 -Pb 0->0 
r -t 1.001485479 -Hs 14 -Hd -1 -Ni 14 -Nx 492.00 -Ny 321.00 -Nz 0.00 -Ne -1.000000 -Nl RTR -Nw --- -Ma 0 -Md ffffffff -Ms 2 -Mt 800 -Is 2.255 -Id 18.255 -It DSR -Il 32 -If 0 -Ii 1 -Iv 32 -P dsr -Ph 1 -Pq 1 -Ps 1 -Pp 0 -Pn 1 -Pl 0 -Pe 0->0 -Pw 0 -Pm 0 -Pc 0 -Pb 0->0 
r -t 1.001485479 -Hs 4 -Hd -1 -Ni 4 -Nx 592.00 -Ny 421.00 -Nz 0.00 -Ne -1.000000 -Nl RTR -Nw --- -Ma 0 -Md ffffffff -Ms 2 -Mt 800 -Is 2.255 -Id 18.255 -It DSR -Il 32 -If 0 -Ii 1 -Iv 32 -P dsr -Ph 1 -Pq 1 -Ps 1 -Pp 0 -Pn 1 -Pl 0 -Pe 0->0 -Pw 0 -Pm 0 -Pc 0 -Pb 0->0 
r -t 1.001485519 -Hs 13 -Hd -1 -Ni 13 -Nx 442.00 -Ny 321.00 -Nz 0.00 -Ne -1.000000 -Nl RTR -Nw --- -Ma 0 -Md ffffffff -Ms 2 -Mt 800 -Is 2.255 -Id 18.255 -It DSR -Il 32 -If 0 -Ii 1 -Iv 32 -P dsr -Ph 1 -Pq 1 -Ps 1 -Pp 0 -Pn 1 -Pl 0 -Pe 0->0 -Pw 0 -Pm 0 -Pc 0 -Pb 0->0 
r -t 1.001485519 -Hs 6 -Hd -1 -Ni 6 -Nx 392.00 -Ny 371.00 -Nz 0.00 -Ne -1.000000 -Nl RTR -Nw --- -Ma 0 -Md ffffffff -Ms 2 -Mt 800 -Is 2.255 -Id 18.255 -It DSR -Il 32 -If 0 -Ii 1 -Iv 32 -P dsr -Ph 1 -Pq 1 -Ps 1 -Pp 0 -Pn 1 -Pl 0 -Pe 0->0 -Pw 0 -Pm 0 -Pc 0 -Pb 0->0 
r -t 1.001485519 -Hs 15 -Hd -1 -Ni 15 -Nx 542.00 -Ny 321.00 -Nz 0.00 -Ne -1.000000 -Nl RTR -Nw --- -Ma 0 -Md ffffffff -Ms 2 -Mt 800 -Is 2.255 -Id 18.255 -It DSR -Il 32 -If 0 -Ii 1 -Iv 32 -P dsr -Ph 1 -Pq 1 -Ps 1 -Pp 0 -Pn 1 -Pl 0 -Pe 0->0 -Pw 0 -Pm 0 -Pc 0 -Pb 0->0 
r -t 1.001485519 -Hs 10 -Hd -1 -Ni 10 -Nx 592.00 -Ny 371.00 -Nz 0.00 -Ne -1.000000 -Nl RTR -Nw --- -Ma 0 -Md ffffffff -Ms 2 -Mt 800 -Is 2.255 -Id 18.255 -It DSR -Il 32 -If 0 -Ii 1 -Iv 32 -P dsr -Ph 1 -Pq 1 -Ps 1 -Pp 0 -Pn 1 -Pl 0 -Pe 0->0 -Pw 0 -Pm 0 -Pc 0 -Pb 0->0 
r -t 1.001485617 -Hs 12 -Hd -1 -Ni 12 -Nx 392.00 -Ny 321.00 -Nz 0.00 -Ne -1.000000 -Nl RTR -Nw --- -Ma 0 -Md ffffffff -Ms 2 -Mt 800 -Is 2.255 -Id 18.255 -It DSR -Il 32 -If 0 -Ii 1 -Iv 32 -P dsr -Ph 1 -Pq 1 -Ps 1 -Pp 0 -Pn 1 -Pl 0 -Pe 0->0 -Pw 0 -Pm 0 -Pc 0 -Pb 0->0 
r -t 1.001485617 -Hs 16 -Hd -1 -Ni 16 -Nx 592.00 -Ny 321.00 -Nz 0.00 -Ne -1.000000 -Nl RTR -Nw --- -Ma 0 -Md ffffffff -Ms 2 -Mt 800 -Is 2.255 -Id 18.255 -It DSR -Il 32 -If 0 -Ii 1 -Iv 32 -P dsr -Ph 1 -Pq 1 -Ps 1 -Pp 0 -Pn 1 -Pl 0 -Pe 0->0 -Pw 0 -Pm 0 -Pc 0 -Pb 0->0 
r -t 1.001485646 -Hs 20 -Hd -1 -Ni 20 -Nx 492.00 -Ny 271.00 -Nz 0.00 -Ne -1.000000 -Nl RTR -Nw --- -Ma 0 -Md ffffffff -Ms 2 -Mt 800 -Is 2.255 -Id 18.255 -It DSR -Il 32 -If 0 -Ii 1 -Iv 32 -P dsr -Ph 1 -Pq 1 -Ps 1 -Pp 0 -Pn 1 -Pl 0 -Pe 0->0 -Pw 0 -Pm 0 -Pc 0 -Pb 0->0 
r -t 1.001485646 -Hs 5 -Hd -1 -Ni 5 -Nx 642.00 -Ny 421.00 -Nz 0.00 -Ne -1.000000 -Nl RTR -Nw --- -Ma 0 -Md ffffffff -Ms 2 -Mt 800 -Is 2.255 -Id 18.255 -It DSR -Il 32 -If 0 -Ii 1 -Iv 32 -P dsr -Ph 1 -Pq 1 -Ps 1 -Pp 0 -Pn 1 -Pl 0 -Pe 0->0 -Pw 0 -Pm 0 -Pc 0 -Pb 0->0 
r -t 1.001485673 -Hs 19 -Hd -1 -Ni 19 -Nx 442.00 -Ny 271.00 -Nz 0.00 -Ne -1.000000 -Nl RTR -Nw --- -Ma 0 -Md ffffffff -Ms 2 -Mt 800 -Is 2.255 -Id 18.255 -It DSR -Il 32 -If 0 -Ii 1 -Iv 32 -P dsr -Ph 1 -Pq 1 -Ps 1 -Pp 0 -Pn 1 -Pl 0 -Pe 0->0 -Pw 0 -Pm 0 -Pc 0 -Pb 0->0 
r -t 1.001485673 -Hs 21 -Hd -1 -Ni 21 -Nx 542.00 -Ny 271.00 -Nz 0.00 -Ne -1.000000 -Nl RTR -Nw --- -Ma 0 -Md ffffffff -Ms 2 -Mt 800 -Is 2.255 -Id 18.255 -It DSR -Il 32 -If 0 -Ii 1 -Iv 32 -P dsr -Ph 1 -Pq 1 -Ps 1 -Pp 0 -Pn 1 -Pl 0 -Pe 0->0 -Pw 0 -Pm 0 -Pc 0 -Pb 0->0 
r -t 1.001485673 -Hs 11 -Hd -1 -Ni 11 -Nx 642.00 -Ny 371.00 -Nz 0.00 -Ne -1.000000 -Nl RTR -Nw --- -Ma 0 -Md ffffffff -Ms 2 -Mt 800 -Is 2.255 -Id 18.255 -It DSR -Il 32 -If 0 -Ii 1 -Iv 32 -P dsr -Ph 1 -Pq 1 -Ps 1 -Pp 0 -Pn 1 -Pl 0 -Pe 0->0 -Pw 0 -Pm 0 -Pc 0 -Pb 0->0 
r -t 1.001485747 -Hs 18 -Hd -1 -Ni 18 -Nx 392.00 -Ny 271.00 -Nz 0.00 -Ne -1.000000 -Nl RTR -Nw --- -Ma 0 -Md ffffffff -Ms 2 -Mt 800 -Is 2.255 -Id 18.255 -It DSR -Il 32 -If 0 -Ii 1 -Iv 32 -P dsr -Ph 1 -Pq 1 -Ps 1 -Pp 0 -Pn 1 -Pl 0 -Pe 0->0 -Pw 0 -Pm 0 -Pc 0 -Pb 0->0 
r -t 1.001485747 -Hs 22 -Hd -1 -Ni 22 -Nx 592.00 -Ny 271.00 -Nz 0.00 -Ne -1.000000 -Nl RTR -Nw --- -Ma 0 -Md ffffffff -Ms 2 -Mt 800 -Is 2.255 -Id 18.255 -It DSR -Il 32 -If 0 -Ii 1 -Iv 32 -P dsr -Ph 1 -Pq 1 -Ps 1 -Pp 0 -Pn 1 -Pl 0 -Pe 0->0 -Pw 0 -Pm 0 -Pc 0 -Pb 0->0 
r -t 1.001485747 -Hs 17 -Hd -1 -Ni 17 -Nx 642.00 -Ny 321.00 -Nz 0.00 -Ne -1.000000 -Nl RTR -Nw --- -Ma 0 -Md ffffffff -Ms 2 -Mt 800 -Is 2.255 -Id 18.255 -It DSR -Il 32 -If 0 -Ii 1 -Iv 32 -P dsr -Ph 1 -Pq 1 -Ps 1 -Pp 0 -Pn 1 -Pl 0 -Pe 0->0 -Pw 0 -Pm 0 -Pc 0 -Pb 0->0 
r -t 1.001485813 -Hs 26 -Hd -1 -Ni 26 -Nx 492.00 -Ny 221.00 -Nz 0.00 -Ne -1.000000 -Nl RTR -Nw --- -Ma 0 -Md ffffffff -Ms 2 -Mt 800 -Is 2.255 -Id 18.255 -It DSR -Il 32 -If 0 -Ii 1 -Iv 32 -P dsr -Ph 1 -Pq 1 -Ps 1 -Pp 0 -Pn 1 -Pl 0 -Pe 0->0 -Pw 0 -Pm 0 -Pc 0 -Pb 0->0 
r -t 1.001485833 -Hs 25 -Hd -1 -Ni 25 -Nx 442.00 -Ny 221.00 -Nz 0.00 -Ne -1.000000 -Nl RTR -Nw --- -Ma 0 -Md ffffffff -Ms 2 -Mt 800 -Is 2.255 -Id 18.255 -It DSR -Il 32 -If 0 -Ii 1 -Iv 32 -P dsr -Ph 1 -Pq 1 -Ps 1 -Pp 0 -Pn 1 -Pl 0 -Pe 0->0 -Pw 0 -Pm 0 -Pc 0 -Pb 0->0 
r -t 1.001485833 -Hs 27 -Hd -1 -Ni 27 -Nx 542.00 -Ny 221.00 -Nz 0.00 -Ne -1.000000 -Nl RTR -Nw --- -Ma 0 -Md ffffffff -Ms 2 -Mt 800 -Is 2.255 -Id 18.255 -It DSR -Il 32 -If 0 -Ii 1 -Iv 32 -P dsr -Ph 1 -Pq 1 -Ps 1 -Pp 0 -Pn 1 -Pl 0 -Pe 0->0 -Pw 0 -Pm 0 -Pc 0 -Pb 0->0 
r -t 1.001485853 -Hs 23 -Hd -1 -Ni 23 -Nx 642.00 -Ny 271.00 -Nz 0.00 -Ne -1.000000 -Nl RTR -Nw --- -Ma 0 -Md ffffffff -Ms 2 -Mt 800 -Is 2.255 -Id 18.255 -It DSR -Il 32 -If 0 -Ii 1 -Iv 32 -P dsr -Ph 1 -Pq 1 -Ps 1 -Pp 0 -Pn 1 -Pl 0 -Pe 0->0 -Pw 0 -Pm 0 -Pc 0 -Pb 0->0 
r -t 1.001485891 -Hs 24 -Hd -1 -Ni 24 -Nx 392.00 -Ny 221.00 -Nz 0.00 -Ne -1.000000 -Nl RTR -Nw --- -Ma 0 -Md ffffffff -Ms 2 -Mt 800 -Is 2.255 -Id 18.255 -It DSR -Il 32 -If 0 -Ii 1 -Iv 32 -P dsr -Ph 1 -Pq 1 -Ps 1 -Pp 0 -Pn 1 -Pl 0 -Pe 0->0 -Pw 0 -Pm 0 -Pc 0 -Pb 0->0 
r -t 1.001485891 -Hs 28 -Hd -1 -Ni 28 -Nx 592.00 -Ny 221.00 -Nz 0.00 -Ne -1.000000 -Nl RTR -Nw --- -Ma 0 -Md ffffffff -Ms 2 -Mt 800 -Is 2.255 -Id 18.255 -It DSR -Il 32 -If 0 -Ii 1 -Iv 32 -P dsr -Ph 1 -Pq 1 -Ps 1 -Pp 0 -Pn 1 -Pl 0 -Pe 0->0 -Pw 0 -Pm 0 -Pc 0 -Pb 0->0 
r -t 1.001485979 -Hs 29 -Hd -1 -Ni 29 -Nx 642.00 -Ny 221.00 -Nz 0.00 -Ne -1.000000 -Nl RTR -Nw --- -Ma 0 -Md ffffffff -Ms 2 -Mt 800 -Is 2.255 -Id 18.255 -It DSR -Il 32 -If 0 -Ii 1 -Iv 32 -P dsr -Ph 1 -Pq 1 -Ps 1 -Pp 0 -Pn 1 -Pl 0 -Pe 0->0 -Pw 0 -Pm 0 -Pc 0 -Pb 0->0 
s -t 1.006338907 -Hs 18 -Hd 2 -Ni 18 -Nx 392.00 -Ny 271.00 -Nz 0.00 -Ne -1.000000 -Nl RTR -Nw --- -Ma 0 -Md 0 -Ms 0 -Mt 0 -Is 18.255 -Id 2.255 -It DSR -Il 44 -If 0 -Ii 4 -Iv 254 -P dsr -Ph 2 -Pq 0 -Ps 1 -Pp 1 -Pn 1 -Pl 2 -Pe 2->18 -Pw 0 -Pm 0 -Pc 0 -Pb 0->0 
s -t 1.006853907 -Hs 18 -Hd -2 -Ni 18 -Nx 392.00 -Ny 271.00 -Nz 0.00 -Ne -1.000000 -Nl MAC -Nw --- -Ma 0 -Md ffffffff -Ms 12 -Mt 806 -P arp -Po REQUEST -Pms 18 -Ps 18 -Pmd 0 -Pd 2 
s -t 1.007481398 -Hs 27 -Hd -1 -Ni 27 -Nx 542.00 -Ny 221.00 -Nz 0.00 -Ne -1.000000 -Nl RTR -Nw --- -Ma 0 -Md 0 -Ms 0 -Mt 0 -Is 27.255 -Id 11.255 -It DSR -Il 32 -If 0 -Ii 3 -Iv 32 -P dsr -Ph 1 -Pq 1 -Ps 1 -Pp 0 -Pn 1 -Pl 0 -Pe 0->0 -Pw 0 -Pm 0 -Pc 0 -Pb 0->0 
r -t 1.007542074 -Hs 12 -Hd -2 -Ni 12 -Nx 392.00 -Ny 321.00 -Nz 0.00 -Ne -1.000000 -Nl MAC -Nw --- -Ma 0 -Md ffffffff -Ms 12 -Mt 806 -P arp -Po REQUEST -Pms 18 -Ps 18 -Pmd 0 -Pd 2 
r -t 1.007542074 -Hs 24 -Hd -2 -Ni 24 -Nx 392.00 -Ny 221.00 -Nz 0.00 -Ne -1.000000 -Nl MAC -Nw --- -Ma 0 -Md ffffffff -Ms 12 -Mt 806 -P arp -Po REQUEST -Pms 18 -Ps 18 -Pmd 0 -Pd 2 
r -t 1.007542074 -Hs 19 -Hd -2 -Ni 19 -Nx 442.00 -Ny 271.00 -Nz 0.00 -Ne -1.000000 -Nl MAC -Nw --- -Ma 0 -Md ffffffff -Ms 12 -Mt 806 -P arp -Po REQUEST -Pms 18 -Ps 18 -Pmd 0 -Pd 2 
r -t 1.007542143 -Hs 13 -Hd -2 -Ni 13 -Nx 442.00 -Ny 321.00 -Nz 0.00 -Ne -1.000000 -Nl MAC -Nw --- -Ma 0 -Md ffffffff -Ms 12 -Mt 806 -P arp -Po REQUEST -Pms 18 -Ps 18 -Pmd 0 -Pd 2 
r -t 1.007542143 -Hs 25 -Hd -2 -Ni 25 -Nx 442.00 -Ny 221.00 -Nz 0.00 -Ne -1.000000 -Nl MAC -Nw --- -Ma 0 -Md ffffffff -Ms 12 -Mt 806 -P arp -Po REQUEST -Pms 18 -Ps 18 -Pmd 0 -Pd 2 
r -t 1.007542240 -Hs 6 -Hd -2 -Ni 6 -Nx 392.00 -Ny 371.00 -Nz 0.00 -Ne -1.000000 -Nl MAC -Nw --- -Ma 0 -Md ffffffff -Ms 12 -Mt 806 -P arp -Po REQUEST -Pms 18 -Ps 18 -Pmd 0 -Pd 2 
r -t 1.007542240 -Hs 20 -Hd -2 -Ni 20 -Nx 492.00 -Ny 271.00 -Nz 0.00 -Ne -1.000000 -Nl MAC -Nw --- -Ma 0 -Md ffffffff -Ms 12 -Mt 806 -P arp -Po REQUEST -Pms 18 -Ps 18 -Pmd 0 -Pd 2 
r -t 1.007542280 -Hs 7 -Hd -2 -Ni 7 -Nx 442.00 -Ny 371.00 -Nz 0.00 -Ne -1.000000 -Nl MAC -Nw --- -Ma 0 -Md ffffffff -Ms 12 -Mt 806 -P arp -Po REQUEST -Pms 18 -Ps 18 -Pmd 0 -Pd 2 
r -t 1.007542280 -Hs 14 -Hd -2 -Ni 14 -Nx 492.00 -Ny 321.00 -Nz 0.00 -Ne -1.000000 -Nl MAC -Nw --- -Ma 0 -Md ffffffff -Ms 12 -Mt 806 -P arp -Po REQUEST -Pms 18 -Ps 18 -Pmd 0 -Pd 2 
r -t 1.007542280 -Hs 26 -Hd -2 -Ni 26 -Nx 492.00 -Ny 221.00 -Nz 0.00 -Ne -1.000000 -Nl MAC -Nw --- -Ma 0 -Md ffffffff -Ms 12 -Mt 806 -P arp -Po REQUEST -Pms 18 -Ps 18 -Pmd 0 -Pd 2 
r -t 1.007542378 -Hs 8 -Hd -2 -Ni 8 -Nx 492.00 -Ny 371.00 -Nz 0.00 -Ne -1.000000 -Nl MAC -Nw --- -Ma 0 -Md ffffffff -Ms 12 -Mt 806 -P arp -Po REQUEST -Pms 18 -Ps 18 -Pmd 0 -Pd 2 
r -t 1.007542407 -Hs 0 -Hd -2 -Ni 0 -Nx 392.00 -Ny 421.00 -Nz 0.00 -Ne -1.000000 -Nl MAC -Nw --- -Ma 0 -Md ffffffff -Ms 12 -Mt 806 -P arp -Po REQUEST -Pms 18 -Ps 18 -Pmd 0 -Pd 2 
r -t 1.007542407 -Hs 21 -Hd -2 -Ni 21 -Nx 542.00 -Ny 271.00 -Nz 0.00 -Ne -1.000000 -Nl MAC -Nw --- -Ma 0 -Md ffffffff -Ms 12 -Mt 806 -P arp -Po REQUEST -Pms 18 -Ps 18 -Pmd 0 -Pd 2 
r -t 1.007542434 -Hs 1 -Hd -2 -Ni 1 -Nx 442.00 -Ny 421.00 -Nz 0.00 -Ne -1.000000 -Nl MAC -Nw --- -Ma 0 -Md ffffffff -Ms 12 -Mt 806 -P arp -Po REQUEST -Pms 18 -Ps 18 -Pmd 0 -Pd 2 
r -t 1.007542434 -Hs 15 -Hd -2 -Ni 15 -Nx 542.00 -Ny 321.00 -Nz 0.00 -Ne -1.000000 -Nl MAC -Nw --- -Ma 0 -Md ffffffff -Ms 12 -Mt 806 -P arp -Po REQUEST -Pms 18 -Ps 18 -Pmd 0 -Pd 2 
r -t 1.007542434 -Hs 27 -Hd -2 -Ni 27 -Nx 542.00 -Ny 221.00 -Nz 0.00 -Ne -1.000000 -Nl MAC -Nw --- -Ma 0 -Md ffffffff -Ms 12 -Mt 806 -P arp -Po REQUEST -Pms 18 -Ps 18 -Pmd 0 -Pd 2 
r -t 1.007542508 -Hs 2 -Hd -2 -Ni 2 -Nx 492.00 -Ny 421.00 -Nz 0.00 -Ne -1.000000 -Nl MAC -Nw --- -Ma 0 -Md ffffffff -Ms 12 -Mt 806 -P arp -Po REQUEST -Pms 18 -Ps 18 -Pmd 0 -Pd 2 
r -t 1.007542508 -Hs 9 -Hd -2 -Ni 9 -Nx 542.00 -Ny 371.00 -Nz 0.00 -Ne -1.000000 -Nl MAC -Nw --- -Ma 0 -Md ffffffff -Ms 12 -Mt 806 -P arp -Po REQUEST -Pms 18 -Ps 18 -Pmd 0 -Pd 2 
r -t 1.007542574 -Hs 22 -Hd -2 -Ni 22 -Nx 592.00 -Ny 271.00 -Nz 0.00 -Ne -1.000000 -Nl MAC -Nw --- -Ma 0 -Md ffffffff -Ms 12 -Mt 806 -P arp -Po REQUEST -Pms 18 -Ps 18 -Pmd 0 -Pd 2 
r -t 1.007542594 -Hs 16 -Hd -2 -Ni 16 -Nx 592.00 -Ny 321.00 -Nz 0.00 -Ne -1.000000 -Nl MAC -Nw --- -Ma 0 -Md ffffffff -Ms 12 -Mt 806 -P arp -Po REQUEST -Pms 18 -Ps 18 -Pmd 0 -Pd 2 
r -t 1.007542594 -Hs 28 -Hd -2 -Ni 28 -Nx 592.00 -Ny 221.00 -Nz 0.00 -Ne -1.000000 -Nl MAC -Nw --- -Ma 0 -Md ffffffff -Ms 12 -Mt 806 -P arp -Po REQUEST -Pms 18 -Ps 18 -Pmd 0 -Pd 2 
r -t 1.007542614 -Hs 3 -Hd -2 -Ni 3 -Nx 542.00 -Ny 421.00 -Nz 0.00 -Ne -1.000000 -Nl MAC -Nw --- -Ma 0 -Md ffffffff -Ms 12 -Mt 806 -P arp -Po REQUEST -Pms 18 -Ps 18 -Pmd 0 -Pd 2 
r -t 1.007542652 -Hs 10 -Hd -2 -Ni 10 -Nx 592.00 -Ny 371.00 -Nz 0.00 -Ne -1.000000 -Nl MAC -Nw --- -Ma 0 -Md ffffffff -Ms 12 -Mt 806 -P arp -Po REQUEST -Pms 18 -Ps 18 -Pmd 0 -Pd 2 
r -t 1.007542740 -Hs 4 -Hd -2 -Ni 4 -Nx 592.00 -Ny 421.00 -Nz 0.00 -Ne -1.000000 -Nl MAC -Nw --- -Ma 0 -Md ffffffff -Ms 12 -Mt 806 -P arp -Po REQUEST -Pms 18 -Ps 18 -Pmd 0 -Pd 2 
r -t 1.007542740 -Hs 23 -Hd -2 -Ni 23 -Nx 642.00 -Ny 271.00 -Nz 0.00 -Ne -1.000000 -Nl MAC -Nw --- -Ma 0 -Md ffffffff -Ms 12 -Mt 806 -P arp -Po REQUEST -Pms 18 -Ps 18 -Pmd 0 -Pd 2 
s -t 1.007957508 -Hs 2 -Hd -2 -Ni 2 -Nx 492.00 -Ny 421.00 -Nz 0.00 -Ne -1.000000 -Nl MAC -Nw --- -Ma 52e -Md 12 -Ms 2 -Mt 0 
r -t 1.008310109 -Hs 18 -Hd -2 -Ni 18 -Nx 392.00 -Ny 271.00 -Nz 0.00 -Ne -1.000000 -Nl MAC -Nw --- -Ma 52e -Md 12 -Ms 2 -Mt 0 
s -t 1.008320109 -Hs 18 -Hd -2 -Ni 18 -Nx 392.00 -Ny 271.00 -Nz 0.00 -Ne -1.000000 -Nl MAC -Nw --- -Ma 3f4 -Md 2 -Ms 0 -Mt 0 
r -t 1.008624710 -Hs 2 -Hd -2 -Ni 2 -Nx 492.00 -Ny 421.00 -Nz 0.00 -Ne -1.000000 -Nl MAC -Nw --- -Ma 3f4 -Md 2 -Ms 0 -Mt 0 
s -t 1.008634710 -Hs 2 -Hd -2 -Ni 2 -Nx 492.00 -Ny 421.00 -Nz 0.00 -Ne -1.000000 -Nl MAC -Nw --- -Ma 13a -Md 12 -Ms 2 -Mt 806 -P arp -Po REPLY -Pms 2 -Ps 2 -Pmd 18 -Pd 18 
r -t 1.009323311 -Hs 18 -Hd -2 -Ni 18 -Nx 392.00 -Ny 271.00 -Nz 0.00 -Ne -1.000000 -Nl MAC -Nw --- -Ma 13a -Md 12 -Ms 2 -Mt 806 -P arp -Po REPLY -Pms 2 -Ps 2 -Pmd 18 -Pd 18 
s -t 1.009333311 -Hs 18 -Hd -2 -Ni 18 -Nx 392.00 -Ny 271.00 -Nz 0.00 -Ne -1.000000 -Nl MAC -Nw --- -Ma 0 -Md 2 -Ms 0 -Mt 0 
r -t 1.009637912 -Hs 2 -Hd -2 -Ni 2 -Nx 492.00 -Ny 421.00 -Nz 0.00 -Ne -1.000000 -Nl MAC -Nw --- -Ma 0 -Md 2 -Ms 0 -Mt 0 
s -t 1.009767838 -Hs 27 -Hd -1 -Ni 27 -Nx 542.00 -Ny 221.00 -Nz 0.00 -Ne -1.000000 -Nl MAC -Nw --- -Ma 0 -Md ffffffff -Ms 1b -Mt 800 -Is 27.255 -Id 11.255 -It DSR -Il 90 -If 0 -Ii 3 -Iv 32 -P dsr -Ph 1 -Pq 1 -Ps 1 -Pp 0 -Pn 1 -Pl 0 -Pe 0->0 -Pw 0 -Pm 0 -Pc 0 -Pb 0->0 
r -t 1.010488004 -Hs 21 -Hd -1 -Ni 21 -Nx 542.00 -Ny 271.00 -Nz 0.00 -Ne -1.000000 -Nl MAC -Nw --- -Ma 0 -Md ffffffff -Ms 1b -Mt 800 -Is 27.255 -Id 11.255 -It DSR -Il 32 -If 0 -Ii 3 -Iv 32 -P dsr -Ph 1 -Pq 1 -Ps 1 -Pp 0 -Pn 1 -Pl 0 -Pe 0->0 -Pw 0 -Pm 0 -Pc 0 -Pb 0->0 
r -t 1.010488004 -Hs 26 -Hd -1 -Ni 26 -Nx 492.00 -Ny 221.00 -Nz 0.00 -Ne -1.000000 -Nl MAC -Nw --- -Ma 0 -Md ffffffff -Ms 1b -Mt 800 -Is 27.255 -Id 11.255 -It DSR -Il 32 -If 0 -Ii 3 -Iv 32 -P dsr -Ph 1 -Pq 1 -Ps 1 -Pp 0 -Pn 1 -Pl 0 -Pe 0->0 -Pw 0 -Pm 0 -Pc 0 -Pb 0->0 
r -t 1.010488004 -Hs 28 -Hd -1 -Ni 28 -Nx 592.00 -Ny 221.00 -Nz 0.00 -Ne -1.000000 -Nl MAC -Nw --- -Ma 0 -Md ffffffff -Ms 1b -Mt 800 -Is 27.255 -Id 11.255 -It DSR -Il 32 -If 0 -Ii 3 -Iv 32 -P dsr -Ph 1 -Pq 1 -Ps 1 -Pp 0 -Pn 1 -Pl 0 -Pe 0->0 -Pw 0 -Pm 0 -Pc 0 -Pb 0->0 
r -t 1.010488073 -Hs 20 -Hd -1 -Ni 20 -Nx 492.00 -Ny 271.00 -Nz 0.00 -Ne -1.000000 -Nl MAC -Nw --- -Ma 0 -Md ffffffff -Ms 1b -Mt 800 -Is 27.255 -Id 11.255 -It DSR -Il 32 -If 0 -Ii 3 -Iv 32 -P dsr -Ph 1 -Pq 1 -Ps 1 -Pp 0 -Pn 1 -Pl 0 -Pe 0->0 -Pw 0 -Pm 0 -Pc 0 -Pb 0->0 
r -t 1.010488073 -Hs 22 -Hd -1 -Ni 22 -Nx 592.00 -Ny 271.00 -Nz 0.00 -Ne -1.000000 -Nl MAC -Nw --- -Ma 0 -Md ffffffff -Ms 1b -Mt 800 -Is 27.255 -Id 11.255 -It DSR -Il 32 -If 0 -Ii 3 -Iv 32 -P dsr -Ph 1 -Pq 1 -Ps 1 -Pp 0 -Pn 1 -Pl 0 -Pe 0->0 -Pw 0 -Pm 0 -Pc 0 -Pb 0->0 
r -t 1.010488171 -Hs 15 -Hd -1 -Ni 15 -Nx 542.00 -Ny 321.00 -Nz 0.00 -Ne -1.000000 -Nl MAC -Nw --- -Ma 0 -Md ffffffff -Ms 1b -Mt 800 -Is 27.255 -Id 11.255 -It DSR -Il 32 -If 0 -Ii 3 -Iv 32 -P dsr -Ph 1 -Pq 1 -Ps 1 -Pp 0 -Pn 1 -Pl 0 -Pe 0->0 -Pw 0 -Pm 0 -Pc 0 -Pb 0->0 
r -t 1.010488171 -Hs 25 -Hd -1 -Ni 25 -Nx 442.00 -Ny 221.00 -Nz 0.00 -Ne -1.000000 -Nl MAC -Nw --- -Ma 0 -Md ffffffff -Ms 1b -Mt 800 -Is 27.255 -Id 11.255 -It DSR -Il 32 -If 0 -Ii 3 -Iv 32 -P dsr -Ph 1 -Pq 1 -Ps 1 -Pp 0 -Pn 1 -Pl 0 -Pe 0->0 -Pw 0 -Pm 0 -Pc 0 -Pb 0->0 
r -t 1.010488171 -Hs 29 -Hd -1 -Ni 29 -Nx 642.00 -Ny 221.00 -Nz 0.00 -Ne -1.000000 -Nl MAC -Nw --- -Ma 0 -Md ffffffff -Ms 1b -Mt 800 -Is 27.255 -Id 11.255 -It DSR -Il 32 -If 0 -Ii 3 -Iv 32 -P dsr -Ph 1 -Pq 1 -Ps 1 -Pp 0 -Pn 1 -Pl 0 -Pe 0->0 -Pw 0 -Pm 0 -Pc 0 -Pb 0->0 
r -t 1.010488210 -Hs 14 -Hd -1 -Ni 14 -Nx 492.00 -Ny 321.00 -Nz 0.00 -Ne -1.000000 -Nl MAC -Nw --- -Ma 0 -Md ffffffff -Ms 1b -Mt 800 -Is 27.255 -Id 11.255 -It DSR -Il 32 -If 0 -Ii 3 -Iv 32 -P dsr -Ph 1 -Pq 1 -Ps 1 -Pp 0 -Pn 1 -Pl 0 -Pe 0->0 -Pw 0 -Pm 0 -Pc 0 -Pb 0->0 
r -t 1.010488210 -Hs 19 -Hd -1 -Ni 19 -Nx 442.00 -Ny 271.00 -Nz 0.00 -Ne -1.000000 -Nl MAC -Nw --- -Ma 0 -Md ffffffff -Ms 1b -Mt 800 -Is 27.255 -Id 11.255 -It DSR -Il 32 -If 0 -Ii 3 -Iv 32 -P dsr -Ph 1 -Pq 1 -Ps 1 -Pp 0 -Pn 1 -Pl 0 -Pe 0->0 -Pw 0 -Pm 0 -Pc 0 -Pb 0->0 
r -t 1.010488210 -Hs 16 -Hd -1 -Ni 16 -Nx 592.00 -Ny 321.00 -Nz 0.00 -Ne -1.000000 -Nl MAC -Nw --- -Ma 0 -Md ffffffff -Ms 1b -Mt 800 -Is 27.255 -Id 11.255 -It DSR -Il 32 -If 0 -Ii 3 -Iv 32 -P dsr -Ph 1 -Pq 1 -Ps 1 -Pp 0 -Pn 1 -Pl 0 -Pe 0->0 -Pw 0 -Pm 0 -Pc 0 -Pb 0->0 
r -t 1.010488210 -Hs 23 -Hd -1 -Ni 23 -Nx 642.00 -Ny 271.00 -Nz 0.00 -Ne -1.000000 -Nl MAC -Nw --- -Ma 0 -Md ffffffff -Ms 1b -Mt 800 -Is 27.255 -Id 11.255 -It DSR -Il 32 -If 0 -Ii 3 -Iv 32 -P dsr -Ph 1 -Pq 1 -Ps 1 -Pp 0 -Pn 1 -Pl 0 -Pe 0->0 -Pw 0 -Pm 0 -Pc 0 -Pb 0->0 
r -t 1.010488309 -Hs 13 -Hd -1 -Ni 13 -Nx 442.00 -Ny 321.00 -Nz 0.00 -Ne -1.000000 -Nl MAC -Nw --- -Ma 0 -Md ffffffff -Ms 1b -Mt 800 -Is 27.255 -Id 11.255 -It DSR -Il 32 -If 0 -Ii 3 -Iv 32 -P dsr -Ph 1 -Pq 1 -Ps 1 -Pp 0 -Pn 1 -Pl 0 -Pe 0->0 -Pw 0 -Pm 0 -Pc 0 -Pb 0->0 
r -t 1.010488309 -Hs 17 -Hd -1 -Ni 17 -Nx 642.00 -Ny 321.00 -Nz 0.00 -Ne -1.000000 -Nl MAC -Nw --- -Ma 0 -Md ffffffff -Ms 1b -Mt 800 -Is 27.255 -Id 11.255 -It DSR -Il 32 -If 0 -Ii 3 -Iv 32 -P dsr -Ph 1 -Pq 1 -Ps 1 -Pp 0 -Pn 1 -Pl 0 -Pe 0->0 -Pw 0 -Pm 0 -Pc 0 -Pb 0->0 
r -t 1.010488338 -Hs 9 -Hd -1 -Ni 9 -Nx 542.00 -Ny 371.00 -Nz 0.00 -Ne -1.000000 -Nl MAC -Nw --- -Ma 0 -Md ffffffff -Ms 1b -Mt 800 -Is 27.255 -Id 11.255 -It DSR -Il 32 -If 0 -Ii 3 -Iv 32 -P dsr -Ph 1 -Pq 1 -Ps 1 -Pp 0 -Pn 1 -Pl 0 -Pe 0->0 -Pw 0 -Pm 0 -Pc 0 -Pb 0->0 
r -t 1.010488338 -Hs 24 -Hd -1 -Ni 24 -Nx 392.00 -Ny 221.00 -Nz 0.00 -Ne -1.000000 -Nl MAC -Nw --- -Ma 0 -Md ffffffff -Ms 1b -Mt 800 -Is 27.255 -Id 11.255 -It DSR -Il 32 -If 0 -Ii 3 -Iv 32 -P dsr -Ph 1 -Pq 1 -Ps 1 -Pp 0 -Pn 1 -Pl 0 -Pe 0->0 -Pw 0 -Pm 0 -Pc 0 -Pb 0->0 
r -t 1.010488365 -Hs 8 -Hd -1 -Ni 8 -Nx 492.00 -Ny 371.00 -Nz 0.00 -Ne -1.000000 -Nl MAC -Nw --- -Ma 0 -Md ffffffff -Ms 1b -Mt 800 -Is 27.255 -Id 11.255 -It DSR -Il 32 -If 0 -Ii 3 -Iv 32 -P dsr -Ph 1 -Pq 1 -Ps 1 -Pp 0 -Pn 1 -Pl 0 -Pe 0->0 -Pw 0 -Pm 0 -Pc 0 -Pb 0->0 
r -t 1.010488365 -Hs 18 -Hd -1 -Ni 18 -Nx 392.00 -Ny 271.00 -Nz 0.00 -Ne -1.000000 -Nl MAC -Nw --- -Ma 0 -Md ffffffff -Ms 1b -Mt 800 -Is 27.255 -Id 11.255 -It DSR -Il 32 -If 0 -Ii 3 -Iv 32 -P dsr -Ph 1 -Pq 1 -Ps 1 -Pp 0 -Pn 1 -Pl 0 -Pe 0->0 -Pw 0 -Pm 0 -Pc 0 -Pb 0->0 
r -t 1.010488365 -Hs 10 -Hd -1 -Ni 10 -Nx 592.00 -Ny 371.00 -Nz 0.00 -Ne -1.000000 -Nl MAC -Nw --- -Ma 0 -Md ffffffff -Ms 1b -Mt 800 -Is 27.255 -Id 11.255 -It DSR -Il 32 -If 0 -Ii 3 -Iv 32 -P dsr -Ph 1 -Pq 1 -Ps 1 -Pp 0 -Pn 1 -Pl 0 -Pe 0->0 -Pw 0 -Pm 0 -Pc 0 -Pb 0->0 
r -t 1.010488439 -Hs 7 -Hd -1 -Ni 7 -Nx 442.00 -Ny 371.00 -Nz 0.00 -Ne -1.000000 -Nl MAC -Nw --- -Ma 0 -Md ffffffff -Ms 1b -Mt 800 -Is 27.255 -Id 11.255 -It DSR -Il 32 -If 0 -Ii 3 -Iv 32 -P dsr -Ph 1 -Pq 1 -Ps 1 -Pp 0 -Pn 1 -Pl 0 -Pe 0->0 -Pw 0 -Pm 0 -Pc 0 -Pb 0->0 
r -t 1.010488439 -Hs 12 -Hd -1 -Ni 12 -Nx 392.00 -Ny 321.00 -Nz 0.00 -Ne -1.000000 -Nl MAC -Nw --- -Ma 0 -Md ffffffff -Ms 1b -Mt 800 -Is 27.255 -Id 11.255 -It DSR -Il 32 -If 0 -Ii 3 -Iv 32 -P dsr -Ph 1 -Pq 1 -Ps 1 -Pp 0 -Pn 1 -Pl 0 -Pe 0->0 -Pw 0 -Pm 0 -Pc 0 -Pb 0->0 
r -t 1.010488439 -Hs 11 -Hd -1 -Ni 11 -Nx 642.00 -Ny 371.00 -Nz 0.00 -Ne -1.000000 -Nl MAC -Nw --- -Ma 0 -Md ffffffff -Ms 1b -Mt 800 -Is 27.255 -Id 11.255 -It DSR -Il 32 -If 0 -Ii 3 -Iv 32 -P dsr -Ph 1 -Pq 1 -Ps 1 -Pp 0 -Pn 1 -Pl 0 -Pe 0->0 -Pw 0 -Pm 0 -Pc 0 -Pb 0->0 
r -t 1.010488504 -Hs 3 -Hd -1 -Ni 3 -Nx 542.00 -Ny 421.00 -Nz 0.00 -Ne -1.000000 -Nl MAC -Nw --- -Ma 0 -Md ffffffff -Ms 1b -Mt 800 -Is 27.255 -Id 11.255 -It DSR -Il 32 -If 0 -Ii 3 -Iv 32 -P dsr -Ph 1 -Pq 1 -Ps 1 -Pp 0 -Pn 1 -Pl 0 -Pe 0->0 -Pw 0 -Pm 0 -Pc 0 -Pb 0->0 