n -t * -s 0  -x 386 -y 395 -Z 0 -z 20  -v circle -c black
n -t * -s 1  -x 436 -y 395 -Z 0 -z 20  -v circle -c black
n -t * -s 2  -x 486 -y 395 -Z 0 -z 20  -v circle -c black
n -t * -s 3  -x 536 -y 395 -Z 0 -z 20  -v circle -c black
n -t * -s 4  -x 586 -y 395 -Z 0 -z 20  -v circle -c black
n -t * -s 5  -x 636 -y 395 -Z 0 -z 20  -v circle -c black
n -t * -s 6  -x 686 -y 395 -Z 0 -z 20  -v circle -c black
n -t * -s 7  -x 736 -y 395 -Z 0 -z 20  -v circle -c black
n -t * -s 8  -x 386 -y 345 -Z 0 -z 20  -v circle -c black
n -t * -s 9  -x 436 -y 345 -Z 0 -z 20  -v circle -c black
n -t * -s 10  -x 486 -y 345 -Z 0 -z 20  -v circle -c black
n -t * -s 11  -x 536 -y 345 -Z 0 -z 20  -v circle -c black
n -t * -s 12  -x 586 -y 345 -Z 0 -z 20  -v circle -c black
n -t * -s 13  -x 636 -y 345 -Z 0 -z 20  -v circle -c black
n -t * -s 14  -x 686 -y 345 -Z 0 -z 20  -v circle -c black
n -t * -s 15  -x 736 -y 345 -Z 0 -z 20  -v circle -c black
n -t * -s 16  -x 386 -y 295 -Z 0 -z 20  -v circle -c black
n -t * -s 17  -x 436 -y 295 -Z 0 -z 20  -v circle -c black
n -t * -s 18  -x 486 -y 295 -Z 0 -z 20  -v circle -c black
n -t * -s 19  -x 536 -y 295 -Z 0 -z 20  -v circle -c black
n -t * -s 20  -x 586 -y 295 -Z 0 -z 20  -v circle -c black
n -t * -s 21  -x 636 -y 295 -Z 0 -z 20  -v circle -c black
n -t * -s 22  -x 686 -y 295 -Z 0 -z 20  -v circle -c black
n -t * -s 23  -x 736 -y 295 -Z 0 -z 20  -v circle -c black
n -t * -s 24  -x 386 -y 245 -Z 0 -z 20  -v circle -c black
n -t * -s 25  -x 436 -y 245 -Z 0 -z 20  -v circle -c black
n -t * -s 26  -x 486 -y 245 -Z 0 -z 20  -v circle -c black
n -t * -s 27  -x 536 -y 245 -Z 0 -z 20  -v circle -c black
n -t * -s 28  -x 586 -y 245 -Z 0 -z 20  -v circle -c black
n -t * -s 29  -x 636 -y 245 -Z 0 -z 20  -v circle -c black
n -t * -s 30  -x 686 -y 245 -Z 0 -z 20  -v circle -c black
n -t * -s 31  -x 736 -y 245 -Z 0 -z 20  -v circle -c black
n -t * -s 32  -x 386 -y 195 -Z 0 -z 20  -v circle -c black
n -t * -s 33  -x 436 -y 195 -Z 0 -z 20  -v circle -c black
n -t * -s 34  -x 486 -y 195 -Z 0 -z 20  -v circle -c black
n -t * -s 35  -x 536 -y 195 -Z 0 -z 20  -v circle -c black
n -t * -s 36  -x 586 -y 195 -Z 0 -z 20  -v circle -c black
n -t * -s 37  -x 636 -y 195 -Z 0 -z 20  -v circle -c black
n -t * -s 38  -x 686 -y 195 -Z 0 -z 20  -v circle -c black
n -t * -s 39  -x 736 -y 195 -Z 0 -z 20  -v circle -c black
V -t * -v 1.0a5 -a 0
W -t * -x 836 -y 495
A -t * -n 1 -p 0 -o 0x7fffffff -c 30 -a 1
A -t * -h 1 -m 1073741823 -s 0
+ -t 1.000000000 -s 3 -d -1 -p tcp -e 40 -c 2 -a 0 -i 0 -k AGT 
- -t 1.000000000 -s 3 -d -1 -p tcp -e 40 -c 2 -a 0 -i 0 -k AGT
h -t 1.000000000 -s 3 -d -1 -p tcp -e 40 -c 2 -a 0 -i 0 -k AGT
+ -t 1.000000000 -s 36 -d -1 -p tcp -e 40 -c 2 -a 0 -i 2 -k AGT 
- -t 1.000000000 -s 36 -d -1 -p tcp -e 40 -c 2 -a 0 -i 2 -k AGT
h -t 1.000000000 -s 36 -d -1 -p tcp -e 40 -c 2 -a 0 -i 2 -k AGT
+ -t 1.002763193 -s 36 -d -1 -p DSR -e 32 -c 2 -a 0 -i 3 -k RTR 
- -t 1.002763193 -s 36 -d -1 -p DSR -e 32 -c 2 -a 0 -i 3 -k RTR
h -t 1.002763193 -s 36 -d -1 -p DSR -e 32 -c 2 -a 0 -i 3 -k RTR
+ -t 1.003298193 -s 36 -d -1 -p DSR -e 90 -c 2 -a 0 -i 3 -k MAC 
- -t 1.003298193 -s 36 -d -1 -p DSR -e 90 -c 2 -a 0 -i 3 -k MAC
h -t 1.003298193 -s 36 -d -1 -p DSR -e 90 -c 2 -a 0 -i 3 -k MAC
r -t 1.004018359 -s 28 -d -1 -p DSR -e 32 -c 2 -a 0 -i 3 -k MAC
r -t 1.004018359 -s 35 -d -1 -p DSR -e 32 -c 2 -a 0 -i 3 -k MAC
r -t 1.004018359 -s 37 -d -1 -p DSR -e 32 -c 2 -a 0 -i 3 -k MAC
r -t 1.004018428 -s 27 -d -1 -p DSR -e 32 -c 2 -a 0 -i 3 -k MAC
r -t 1.004018428 -s 29 -d -1 -p DSR -e 32 -c 2 -a 0 -i 3 -k MAC
r -t 1.004018526 -s 20 -d -1 -p DSR -e 32 -c 2 -a 0 -i 3 -k MAC
r -t 1.004018526 -s 34 -d -1 -p DSR -e 32 -c 2 -a 0 -i 3 -k MAC
r -t 1.004018526 -s 38 -d -1 -p DSR -e 32 -c 2 -a 0 -i 3 -k MAC
r -t 1.004018565 -s 19 -d -1 -p DSR -e 32 -c 2 -a 0 -i 3 -k MAC
r -t 1.004018565 -s 26 -d -1 -p DSR -e 32 -c 2 -a 0 -i 3 -k MAC
r -t 1.004018565 -s 21 -d -1 -p DSR -e 32 -c 2 -a 0 -i 3 -k MAC
r -t 1.004018565 -s 30 -d -1 -p DSR -e 32 -c 2 -a 0 -i 3 -k MAC
r -t 1.004018664 -s 18 -d -1 -p DSR -e 32 -c 2 -a 0 -i 3 -k MAC
r -t 1.004018664 -s 22 -d -1 -p DSR -e 32 -c 2 -a 0 -i 3 -k MAC
r -t 1.004018693 -s 12 -d -1 -p DSR -e 32 -c 2 -a 0 -i 3 -k MAC
r -t 1.004018693 -s 33 -d -1 -p DSR -e 32 -c 2 -a 0 -i 3 -k MAC
r -t 1.004018693 -s 39 -d -1 -p DSR -e 32 -c 2 -a 0 -i 3 -k MAC
r -t 1.004018720 -s 11 -d -1 -p DSR -e 32 -c 2 -a 0 -i 3 -k MAC
r -t 1.004018720 -s 25 -d -1 -p DSR -e 32 -c 2 -a 0 -i 3 -k MAC
r -t 1.004018720 -s 13 -d -1 -p DSR -e 32 -c 2 -a 0 -i 3 -k MAC
r -t 1.004018720 -s 31 -d -1 -p DSR -e 32 -c 2 -a 0 -i 3 -k MAC
r -t 1.004018793 -s 10 -d -1 -p DSR -e 32 -c 2 -a 0 -i 3 -k MAC
r -t 1.004018793 -s 17 -d -1 -p DSR -e 32 -c 2 -a 0 -i 3 -k MAC
r -t 1.004018793 -s 14 -d -1 -p DSR -e 32 -c 2 -a 0 -i 3 -k MAC
r -t 1.004018793 -s 23 -d -1 -p DSR -e 32 -c 2 -a 0 -i 3 -k MAC
r -t 1.004018859 -s 4 -d -1 -p DSR -e 32 -c 2 -a 0 -i 3 -k MAC
r -t 1.004018859 -s 32 -d -1 -p DSR -e 32 -c 2 -a 0 -i 3 -k MAC
r -t 1.004018880 -s 3 -d -1 -p DSR -e 32 -c 2 -a 0 -i 3 -k MAC
r -t 1.004018880 -s 24 -d -1 -p DSR -e 32 -c 2 -a 0 -i 3 -k MAC
r -t 1.004018880 -s 5 -d -1 -p DSR -e 32 -c 2 -a 0 -i 3 -k MAC
r -t 1.004018900 -s 9 -d -1 -p DSR -e 32 -c 2 -a 0 -i 3 -k MAC
r -t 1.004018900 -s 15 -d -1 -p DSR -e 32 -c 2 -a 0 -i 3 -k MAC
r -t 1.004018938 -s 2 -d -1 -p DSR -e 32 -c 2 -a 0 -i 3 -k MAC
r -t 1.004018938 -s 16 -d -1 -p DSR -e 32 -c 2 -a 0 -i 3 -k MAC
r -t 1.004018938 -s 6 -d -1 -p DSR -e 32 -c 2 -a 0 -i 3 -k MAC
r -t 1.004019026 -s 1 -d -1 -p DSR -e 32 -c 2 -a 0 -i 3 -k MAC
r -t 1.004019026 -s 8 -d -1 -p DSR -e 32 -c 2 -a 0 -i 3 -k MAC
r -t 1.004019026 -s 7 -d -1 -p DSR -e 32 -c 2 -a 0 -i 3 -k MAC
+ -t 1.009032720 -s 3 -d -1 -p DSR -e 32 -c 2 -a 0 -i 1 -k RTR 
- -t 1.009032720 -s 3 -d -1 -p DSR -e 32 -c 2 -a 0 -i 1 -k RTR
h -t 1.009032720 -s 3 -d -1 -p DSR -e 32 -c 2 -a 0 -i 1 -k RTR
+ -t 1.009267720 -s 3 -d -1 -p DSR -e 90 -c 2 -a 0 -i 1 -k MAC 
- -t 1.009267720 -s 3 -d -1 -p DSR -e 90 -c 2 -a 0 -i 1 -k MAC
h -t 1.009267720 -s 3 -d -1 -p DSR -e 90 -c 2 -a 0 -i 1 -k MAC
r -t 1.009987886 -s 2 -d -1 -p DSR -e 32 -c 2 -a 0 -i 1 -k MAC
r -t 1.009987886 -s 11 -d -1 -p DSR -e 32 -c 2 -a 0 -i 1 -k MAC
r -t 1.009987886 -s 4 -d -1 -p DSR -e 32 -c 2 -a 0 -i 1 -k MAC
r -t 1.009987955 -s 10 -d -1 -p DSR -e 32 -c 2 -a 0 -i 1 -k MAC
r -t 1.009987955 -s 12 -d -1 -p DSR -e 32 -c 2 -a 0 -i 1 -k MAC
r -t 1.009988053 -s 1 -d -1 -p DSR -e 32 -c 2 -a 0 -i 1 -k MAC
r -t 1.009988053 -s 19 -d -1 -p DSR -e 32 -c 2 -a 0 -i 1 -k MAC
r -t 1.009988053 -s 5 -d -1 -p DSR -e 32 -c 2 -a 0 -i 1 -k MAC
r -t 1.009988092 -s 18 -d -1 -p DSR -e 32 -c 2 -a 0 -i 1 -k MAC
r -t 1.009988092 -s 9 -d -1 -p DSR -e 32 -c 2 -a 0 -i 1 -k MAC
r -t 1.009988092 -s 20 -d -1 -p DSR -e 32 -c 2 -a 0 -i 1 -k MAC
r -t 1.009988092 -s 13 -d -1 -p DSR -e 32 -c 2 -a 0 -i 1 -k MAC
r -t 1.009988191 -s 17 -d -1 -p DSR -e 32 -c 2 -a 0 -i 1 -k MAC
r -t 1.009988191 -s 21 -d -1 -p DSR -e 32 -c 2 -a 0 -i 1 -k MAC
r -t 1.009988220 -s 0 -d -1 -p DSR -e 32 -c 2 -a 0 -i 1 -k MAC
r -t 1.009988220 -s 27 -d -1 -p DSR -e 32 -c 2 -a 0 -i 1 -k MAC
r -t 1.009988220 -s 6 -d -1 -p DSR -e 32 -c 2 -a 0 -i 1 -k MAC
r -t 1.009988247 -s 26 -d -1 -p DSR -e 32 -c 2 -a 0 -i 1 -k MAC
r -t 1.009988247 -s 8 -d -1 -p DSR -e 32 -c 2 -a 0 -i 1 -k MAC
r -t 1.009988247 -s 28 -d -1 -p DSR -e 32 -c 2 -a 0 -i 1 -k MAC
r -t 1.009988247 -s 14 -d -1 -p DSR -e 32 -c 2 -a 0 -i 1 -k MAC
r -t 1.009988321 -s 25 -d -1 -p DSR -e 32 -c 2 -a 0 -i 1 -k MAC
r -t 1.009988321 -s 16 -d -1 -p DSR -e 32 -c 2 -a 0 -i 1 -k MAC
r -t 1.009988321 -s 29 -d -1 -p DSR -e 32 -c 2 -a 0 -i 1 -k MAC
r -t 1.009988321 -s 22 -d -1 -p DSR -e 32 -c 2 -a 0 -i 1 -k MAC
r -t 1.009988386 -s 35 -d -1 -p DSR -e 32 -c 2 -a 0 -i 1 -k MAC
r -t 1.009988386 -s 7 -d -1 -p DSR -e 32 -c 2 -a 0 -i 1 -k MAC
r -t 1.009988407 -s 34 -d -1 -p DSR -e 32 -c 2 -a 0 -i 1 -k MAC
r -t 1.009988407 -s 36 -d -1 -p DSR -e 32 -c 2 -a 0 -i 1 -k MAC
r -t 1.009988407 -s 15 -d -1 -p DSR -e 32 -c 2 -a 0 -i 1 -k MAC
r -t 1.009988427 -s 24 -d -1 -p DSR -e 32 -c 2 -a 0 -i 1 -k MAC
r -t 1.009988427 -s 30 -d -1 -p DSR -e 32 -c 2 -a 0 -i 1 -k MAC
r -t 1.009988465 -s 33 -d -1 -p DSR -e 32 -c 2 -a 0 -i 1 -k MAC
r -t 1.009988465 -s 37 -d -1 -p DSR -e 32 -c 2 -a 0 -i 1 -k MAC
r -t 1.009988465 -s 23 -d -1 -p DSR -e 32 -c 2 -a 0 -i 1 -k MAC
r -t 1.009988553 -s 32 -d -1 -p DSR -e 32 -c 2 -a 0 -i 1 -k MAC
r -t 1.009988553 -s 38 -d -1 -p DSR -e 32 -c 2 -a 0 -i 1 -k MAC
r -t 1.009988553 -s 31 -d -1 -p DSR -e 32 -c 2 -a 0 -i 1 -k MAC
+ -t 1.011985978 -s 23 -d 36 -p DSR -e 44 -c 2 -a 0 -i 4 -k RTR 
- -t 1.011985978 -s 23 -d 36 -p DSR -e 44 -c 2 -a 0 -i 4 -k RTR
h -t 1.011985978 -s 23 -d 36 -p DSR -e 44 -c 2 -a 0 -i 4 -k RTR
+ -t 1.012500978 -s 23 -d -1 -p ARP -e 86 -c 2 -a 0 -i 0 -k MAC 
- -t 1.012500978 -s 23 -d -1 -p ARP -e 86 -c 2 -a 0 -i 0 -k MAC
h -t 1.012500978 -s 23 -d -1 -p ARP -e 86 -c 2 -a 0 -i 0 -k MAC
r -t 1.013189145 -s 15 -d -1 -p ARP -e 28 -c 2 -a 0 -i 0 -k MAC
r -t 1.013189145 -s 22 -d -1 -p ARP -e 28 -c 2 -a 0 -i 0 -k MAC
r -t 1.013189145 -s 31 -d -1 -p ARP -e 28 -c 2 -a 0 -i 0 -k MAC
r -t 1.013189214 -s 30 -d -1 -p ARP -e 28 -c 2 -a 0 -i 0 -k MAC
r -t 1.013189214 -s 14 -d -1 -p ARP -e 28 -c 2 -a 0 -i 0 -k MAC
r -t 1.013189312 -s 7 -d -1 -p ARP -e 28 -c 2 -a 0 -i 0 -k MAC
r -t 1.013189312 -s 21 -d -1 -p ARP -e 28 -c 2 -a 0 -i 0 -k MAC
r -t 1.013189312 -s 39 -d -1 -p ARP -e 28 -c 2 -a 0 -i 0 -k MAC
r -t 1.013189351 -s 38 -d -1 -p ARP -e 28 -c 2 -a 0 -i 0 -k MAC
r -t 1.013189351 -s 6 -d -1 -p ARP -e 28 -c 2 -a 0 -i 0 -k MAC
r -t 1.013189351 -s 29 -d -1 -p ARP -e 28 -c 2 -a 0 -i 0 -k MAC
r -t 1.013189351 -s 13 -d -1 -p ARP -e 28 -c 2 -a 0 -i 0 -k MAC
r -t 1.013189450 -s 37 -d -1 -p ARP -e 28 -c 2 -a 0 -i 0 -k MAC
r -t 1.013189450 -s 5 -d -1 -p ARP -e 28 -c 2 -a 0 -i 0 -k MAC
r -t 1.013189478 -s 20 -d -1 -p ARP -e 28 -c 2 -a 0 -i 0 -k MAC
r -t 1.013189505 -s 28 -d -1 -p ARP -e 28 -c 2 -a 0 -i 0 -k MAC
r -t 1.013189505 -s 12 -d -1 -p ARP -e 28 -c 2 -a 0 -i 0 -k MAC
r -t 1.013189579 -s 36 -d -1 -p ARP -e 28 -c 2 -a 0 -i 0 -k MAC
r -t 1.013189579 -s 4 -d -1 -p ARP -e 28 -c 2 -a 0 -i 0 -k MAC
r -t 1.013189645 -s 19 -d -1 -p ARP -e 28 -c 2 -a 0 -i 0 -k MAC
r -t 1.013189665 -s 27 -d -1 -p ARP -e 28 -c 2 -a 0 -i 0 -k MAC
r -t 1.013189665 -s 11 -d -1 -p ARP -e 28 -c 2 -a 0 -i 0 -k MAC
r -t 1.013189724 -s 35 -d -1 -p ARP -e 28 -c 2 -a 0 -i 0 -k MAC
r -t 1.013189724 -s 3 -d -1 -p ARP -e 28 -c 2 -a 0 -i 0 -k MAC
r -t 1.013189812 -s 18 -d -1 -p ARP -e 28 -c 2 -a 0 -i 0 -k MAC
+ -t 1.013504579 -s 36 -d -1 -p RTS -e 44 -c 2 -a 0 -i 0 -k MAC 
- -t 1.013504579 -s 36 -d -1 -p RTS -e 44 -c 2 -a 0 -i 0 -k MAC
h -t 1.013504579 -s 36 -d -1 -p RTS -e 44 -c 2 -a 0 -i 0 -k MAC
r -t 1.013857180 -s 23 -d -1 -p RTS -e 44 -c 2 -a 0 -i 0 -k MAC
+ -t 1.013867180 -s 23 -d -1 -p CTS -e 38 -c 2 -a 0 -i 0 -k MAC 
- -t 1.013867180 -s 23 -d -1 -p CTS -e 38 -c 2 -a 0 -i 0 -k MAC
h -t 1.013867180 -s 23 -d -1 -p CTS -e 38 -c 2 -a 0 -i 0 -k MAC
+ -t 1.014011098 -s 16 -d 3 -p DSR -e 44 -c 2 -a 0 -i 6 -k RTR 
- -t 1.014011098 -s 16 -d 3 -p DSR -e 44 -c 2 -a 0 -i 6 -k RTR
h -t 1.014011098 -s 16 -d 3 -p DSR -e 44 -c 2 -a 0 -i 6 -k RTR
r -t 1.014171781 -s 36 -d -1 -p CTS -e 38 -c 2 -a 0 -i 0 -k MAC
+ -t 1.014181781 -s 36 -d -1 -p ARP -e 86 -c 2 -a 0 -i 0 -k MAC 
- -t 1.014181781 -s 36 -d -1 -p ARP -e 86 -c 2 -a 0 -i 0 -k MAC
h -t 1.014181781 -s 36 -d -1 -p ARP -e 86 -c 2 -a 0 -i 0 -k MAC
r -t 1.014870382 -s 23 -d -1 -p ARP -e 28 -c 2 -a 0 -i 0 -k MAC
+ -t 1.014880382 -s 23 -d -1 -p ACK -e 38 -c 2 -a 0 -i 0 -k MAC 
- -t 1.014880382 -s 23 -d -1 -p ACK -e 38 -c 2 -a 0 -i 0 -k MAC
h -t 1.014880382 -s 23 -d -1 -p ACK -e 38 -c 2 -a 0 -i 0 -k MAC
r -t 1.015184983 -s 36 -d -1 -p ACK -e 38 -c 2 -a 0 -i 0 -k MAC
+ -t 1.015574382 -s 23 -d -1 -p RTS -e 44 -c 2 -a 0 -i 0 -k MAC 
- -t 1.015574382 -s 23 -d -1 -p RTS -e 44 -c 2 -a 0 -i 0 -k MAC
h -t 1.015574382 -s 23 -d -1 -p RTS -e 44 -c 2 -a 0 -i 0 -k MAC
r -t 1.015926983 -s 36 -d -1 -p RTS -e 44 -c 2 -a 0 -i 0 -k MAC
+ -t 1.015936983 -s 36 -d -1 -p CTS -e 38 -c 2 -a 0 -i 0 -k MAC 
- -t 1.015936983 -s 36 -d -1 -p CTS -e 38 -c 2 -a 0 -i 0 -k MAC
h -t 1.015936983 -s 36 -d -1 -p CTS -e 38 -c 2 -a 0 -i 0 -k MAC
r -t 1.016241584 -s 23 -d -1 -p CTS -e 38 -c 2 -a 0 -i 0 -k MAC
+ -t 1.016251584 -s 23 -d 36 -p DSR -e 102 -c 2 -a 0 -i 4 -k MAC 
- -t 1.016251584 -s 23 -d 36 -p DSR -e 102 -c 2 -a 0 -i 4 -k MAC
h -t 1.016251584 -s 23 -d 36 -p DSR -e 102 -c 2 -a 0 -i 4 -k MAC
r -t 1.017068185 -s 36 -d 36 -p DSR -e 44 -c 2 -a 0 -i 4 -k MAC
+ -t 1.017078185 -s 36 -d -1 -p ACK -e 38 -c 2 -a 0 -i 0 -k MAC 
- -t 1.017078185 -s 36 -d -1 -p ACK -e 38 -c 2 -a 0 -i 0 -k MAC
h -t 1.017078185 -s 36 -d -1 -p ACK -e 38 -c 2 -a 0 -i 0 -k MAC
+ -t 1.017093185 -s 36 -d 23 -p tcp -e 76 -c 2 -a 0 -i 2 -k RTR 
- -t 1.017093185 -s 36 -d 23 -p tcp -e 76 -c 2 -a 0 -i 2 -k RTR
h -t 1.017093185 -s 36 -d 23 -p tcp -e 76 -c 2 -a 0 -i 2 -k RTR
r -t 1.017382786 -s 23 -d -1 -p ACK -e 38 -c 2 -a 0 -i 0 -k MAC
+ -t 1.017682750 -s 16 -d -1 -p ARP -e 86 -c 2 -a 0 -i 0 -k MAC 
- -t 1.017682750 -s 16 -d -1 -p ARP -e 86 -c 2 -a 0 -i 0 -k MAC
h -t 1.017682750 -s 16 -d -1 -p ARP -e 86 -c 2 -a 0 -i 0 -k MAC
r -t 1.018370917 -s 8 -d -1 -p ARP -e 28 -c 2 -a 0 -i 0 -k MAC
r -t 1.018370917 -s 24 -d -1 -p ARP -e 28 -c 2 -a 0 -i 0 -k MAC
r -t 1.018370917 -s 17 -d -1 -p ARP -e 28 -c 2 -a 0 -i 0 -k MAC
r -t 1.018370986 -s 9 -d -1 -p ARP -e 28 -c 2 -a 0 -i 0 -k MAC
r -t 1.018370986 -s 25 -d -1 -p ARP -e 28 -c 2 -a 0 -i 0 -k MAC
r -t 1.018371084 -s 0 -d -1 -p ARP -e 28 -c 2 -a 0 -i 0 -k MAC
r -t 1.018371084 -s 32 -d -1 -p ARP -e 28 -c 2 -a 0 -i 0 -k MAC
r -t 1.018371084 -s 18 -d -1 -p ARP -e 28 -c 2 -a 0 -i 0 -k MAC
r -t 1.018371123 -s 1 -d -1 -p ARP -e 28 -c 2 -a 0 -i 0 -k MAC
r -t 1.018371123 -s 33 -d -1 -p ARP -e 28 -c 2 -a 0 -i 0 -k MAC
r -t 1.018371123 -s 10 -d -1 -p ARP -e 28 -c 2 -a 0 -i 0 -k MAC
r -t 1.018371123 -s 26 -d -1 -p ARP -e 28 -c 2 -a 0 -i 0 -k MAC
r -t 1.018371222 -s 2 -d -1 -p ARP -e 28 -c 2 -a 0 -i 0 -k MAC
r -t 1.018371222 -s 34 -d -1 -p ARP -e 28 -c 2 -a 0 -i 0 -k MAC
r -t 1.018371250 -s 19 -d -1 -p ARP -e 28 -c 2 -a 0 -i 0 -k MAC
r -t 1.018371277 -s 11 -d -1 -p ARP -e 28 -c 2 -a 0 -i 0 -k MAC
r -t 1.018371277 -s 27 -d -1 -p ARP -e 28 -c 2 -a 0 -i 0 -k MAC
r -t 1.018371351 -s 3 -d -1 -p ARP -e 28 -c 2 -a 0 -i 0 -k MAC
r -t 1.018371351 -s 35 -d -1 -p ARP -e 28 -c 2 -a 0 -i 0 -k MAC
r -t 1.018371417 -s 20 -d -1 -p ARP -e 28 -c 2 -a 0 -i 0 -k MAC
r -t 1.018371438 -s 12 -d -1 -p ARP -e 28 -c 2 -a 0 -i 0 -k MAC
r -t 1.018371438 -s 28 -d -1 -p ARP -e 28 -c 2 -a 0 -i 0 -k MAC
r -t 1.018371496 -s 4 -d -1 -p ARP -e 28 -c 2 -a 0 -i 0 -k MAC
r -t 1.018371496 -s 36 -d -1 -p ARP -e 28 -c 2 -a 0 -i 0 -k MAC
r -t 1.018371584 -s 21 -d -1 -p ARP -e 28 -c 2 -a 0 -i 0 -k MAC
+ -t 1.018441496 -s 36 -d -1 -p RTS -e 44 -c 2 -a 0 -i 0 -k MAC 
- -t 1.018441496 -s 36 -d -1 -p RTS -e 44 -c 2 -a 0 -i 0 -k MAC
h -t 1.018441496 -s 36 -d -1 -p RTS -e 44 -c 2 -a 0 -i 0 -k MAC
r -t 1.018794097 -s 23 -d -1 -p RTS -e 44 -c 2 -a 0 -i 0 -k MAC
+ -t 1.018804097 -s 23 -d -1 -p CTS -e 38 -c 2 -a 0 -i 0 -k MAC 
- -t 1.018804097 -s 23 -d -1 -p CTS -e 38 -c 2 -a 0 -i 0 -k MAC
h -t 1.018804097 -s 23 -d -1 -p CTS -e 38 -c 2 -a 0 -i 0 -k MAC
r -t 1.019108698 -s 36 -d -1 -p CTS -e 38 -c 2 -a 0 -i 0 -k MAC
+ -t 1.019118698 -s 36 -d 23 -p tcp -e 134 -c 2 -a 0 -i 2 -k MAC 
- -t 1.019118698 -s 36 -d 23 -p tcp -e 134 -c 2 -a 0 -i 2 -k MAC
h -t 1.019118698 -s 36 -d 23 -p tcp -e 134 -c 2 -a 0 -i 2 -k MAC
r -t 1.020191299 -s 23 -d 23 -p tcp -e 76 -c 2 -a 0 -i 2 -k MAC
+ -t 1.020201299 -s 23 -d -1 -p ACK -e 38 -c 2 -a 0 -i 0 -k MAC 
- -t 1.020201299 -s 23 -d -1 -p ACK -e 38 -c 2 -a 0 -i 0 -k MAC
h -t 1.020201299 -s 23 -d -1 -p ACK -e 38 -c 2 -a 0 -i 0 -k MAC
r -t 1.020216299 -s 23 -d 23 -p tcp -e 40 -c 2 -a 0 -i 2 -k AGT
+ -t 1.020216299 -s 23 -d -1 -p ack -e 40 -c 2 -a 0 -i 7 -k AGT 
- -t 1.020216299 -s 23 -d -1 -p ack -e 40 -c 2 -a 0 -i 7 -k AGT
h -t 1.020216299 -s 23 -d -1 -p ack -e 40 -c 2 -a 0 -i 7 -k AGT
+ -t 1.020216299 -s 23 -d 36 -p ack -e 76 -c 2 -a 0 -i 7 -k RTR 
- -t 1.020216299 -s 23 -d 36 -p ack -e 76 -c 2 -a 0 -i 7 -k RTR
h -t 1.020216299 -s 23 -d 36 -p ack -e 76 -c 2 -a 0 -i 7 -k RTR
r -t 1.020505899 -s 36 -d -1 -p ACK -e 38 -c 2 -a 0 -i 0 -k MAC
+ -t 1.020675299 -s 23 -d -1 -p RTS -e 44 -c 2 -a 0 -i 0 -k MAC 
- -t 1.020675299 -s 23 -d -1 -p RTS -e 44 -c 2 -a 0 -i 0 -k MAC
h -t 1.020675299 -s 23 -d -1 -p RTS -e 44 -c 2 -a 0 -i 0 -k MAC
r -t 1.021027899 -s 36 -d -1 -p RTS -e 44 -c 2 -a 0 -i 0 -k MAC
+ -t 1.021037899 -s 36 -d -1 -p CTS -e 38 -c 2 -a 0 -i 0 -k MAC 
- -t 1.021037899 -s 36 -d -1 -p CTS -e 38 -c 2 -a 0 -i 0 -k MAC
h -t 1.021037899 -s 36 -d -1 -p CTS -e 38 -c 2 -a 0 -i 0 -k MAC
r -t 1.021342500 -s 23 -d -1 -p CTS -e 38 -c 2 -a 0 -i 0 -k MAC
+ -t 1.021352500 -s 23 -d 36 -p ack -e 134 -c 2 -a 0 -i 7 -k MAC 
- -t 1.021352500 -s 23 -d 36 -p ack -e 134 -c 2 -a 0 -i 7 -k MAC
h -t 1.021352500 -s 23 -d 36 -p ack -e 134 -c 2 -a 0 -i 7 -k MAC
r -t 1.022425101 -s 36 -d 36 -p ack -e 76 -c 2 -a 0 -i 7 -k MAC
+ -t 1.022435101 -s 36 -d -1 -p ACK -e 38 -c 2 -a 0 -i 0 -k MAC 
- -t 1.022435101 -s 36 -d -1 -p ACK -e 38 -c 2 -a 0 -i 0 -k MAC
h -t 1.022435101 -s 36 -d -1 -p ACK -e 38 -c 2 -a 0 -i 0 -k MAC
r -t 1.022450101 -s 36 -d 36 -p ack -e 40 -c 2 -a 0 -i 7 -k AGT
+ -t 1.022450101 -s 36 -d -1 -p tcp -e 1540 -c 2 -a 0 -i 8 -k AGT 
- -t 1.022450101 -s 36 -d -1 -p tcp -e 1540 -c 2 -a 0 -i 8 -k AGT
h -t 1.022450101 -s 36 -d -1 -p tcp -e 1540 -c 2 -a 0 -i 8 -k AGT
+ -t 1.022450101 -s 36 -d -1 -p tcp -e 1540 -c 2 -a 0 -i 9 -k AGT 
- -t 1.022450101 -s 36 -d -1 -p tcp -e 1540 -c 2 -a 0 -i 9 -k AGT
h -t 1.022450101 -s 36 -d -1 -p tcp -e 1540 -c 2 -a 0 -i 9 -k AGT
+ -t 1.022450101 -s 36 -d 23 -p tcp -e 1576 -c 2 -a 0 -i 8 -k RTR 
- -t 1.022450101 -s 36 -d 23 -p tcp -e 1576 -c 2 -a 0 -i 8 -k RTR
h -t 1.022450101 -s 36 -d 23 -p tcp -e 1576 -c 2 -a 0 -i 8 -k RTR
+ -t 1.022450101 -s 36 -d 23 -p tcp -e 1576 -c 2 -a 0 -i 9 -k RTR 
- -t 1.022450101 -s 36 -d 23 -p tcp -e 1576 -c 2 -a 0 -i 9 -k RTR
h -t 1.022450101 -s 36 -d 23 -p tcp -e 1576 -c 2 -a 0 -i 9 -k RTR
r -t 1.022739702 -s 23 -d -1 -p ACK -e 38 -c 2 -a 0 -i 0 -k MAC
+ -t 1.023009788 -s 3 -d -1 -p RTS -e 44 -c 2 -a 0 -i 0 -k MAC 
- -t 1.023009788 -s 3 -d -1 -p RTS -e 44 -c 2 -a 0 -i 0 -k MAC
h -t 1.023009788 -s 3 -d -1 -p RTS -e 44 -c 2 -a 0 -i 0 -k MAC
r -t 1.023362389 -s 16 -d -1 -p RTS -e 44 -c 2 -a 0 -i 0 -k MAC
+ -t 1.023372389 -s 16 -d -1 -p CTS -e 38 -c 2 -a 0 -i 0 -k MAC 
- -t 1.023372389 -s 16 -d -1 -p CTS -e 38 -c 2 -a 0 -i 0 -k MAC
h -t 1.023372389 -s 16 -d -1 -p CTS -e 38 -c 2 -a 0 -i 0 -k MAC
r -t 1.023676990 -s 3 -d -1 -p CTS -e 38 -c 2 -a 0 -i 0 -k MAC
+ -t 1.023686990 -s 3 -d -1 -p ARP -e 86 -c 2 -a 0 -i 0 -k MAC 
- -t 1.023686990 -s 3 -d -1 -p ARP -e 86 -c 2 -a 0 -i 0 -k MAC
h -t 1.023686990 -s 3 -d -1 -p ARP -e 86 -c 2 -a 0 -i 0 -k MAC
r -t 1.024375591 -s 16 -d -1 -p ARP -e 28 -c 2 -a 0 -i 0 -k MAC
+ -t 1.024385591 -s 16 -d -1 -p ACK -e 38 -c 2 -a 0 -i 0 -k MAC 
- -t 1.024385591 -s 16 -d -1 -p ACK -e 38 -c 2 -a 0 -i 0 -k MAC
h -t 1.024385591 -s 16 -d -1 -p ACK -e 38 -c 2 -a 0 -i 0 -k MAC
r -t 1.024690192 -s 3 -d -1 -p ACK -e 38 -c 2 -a 0 -i 0 -k MAC
+ -t 1.024760337 -s 36 -d -1 -p RTS -e 44 -c 2 -a 0 -i 0 -k MAC 
- -t 1.024760337 -s 36 -d -1 -p RTS -e 44 -c 2 -a 0 -i 0 -k MAC
h -t 1.024760337 -s 36 -d -1 -p RTS -e 44 -c 2 -a 0 -i 0 -k MAC
r -t 1.025112938 -s 23 -d -1 -p RTS -e 44 -c 2 -a 0 -i 0 -k MAC
+ -t 1.025122938 -s 23 -d -1 -p CTS -e 38 -c 2 -a 0 -i 0 -k MAC 
- -t 1.025122938 -s 23 -d -1 -p CTS -e 38 -c 2 -a 0 -i 0 -k MAC
h -t 1.025122938 -s 23 -d -1 -p CTS -e 38 -c 2 -a 0 -i 0 -k MAC
r -t 1.025427538 -s 36 -d -1 -p CTS -e 38 -c 2 -a 0 -i 0 -k MAC
+ -t 1.025437538 -s 36 -d 23 -p tcp -e 1634 -c 2 -a 0 -i 8 -k MAC 
- -t 1.025437538 -s 36 -d 23 -p tcp -e 1634 -c 2 -a 0 -i 8 -k MAC
h -t 1.025437538 -s 36 -d 23 -p tcp -e 1634 -c 2 -a 0 -i 8 -k MAC
r -t 1.038510139 -s 23 -d 23 -p tcp -e 1576 -c 2 -a 0 -i 8 -k MAC
+ -t 1.038520139 -s 23 -d -1 -p ACK -e 38 -c 2 -a 0 -i 0 -k MAC 
- -t 1.038520139 -s 23 -d -1 -p ACK -e 38 -c 2 -a 0 -i 0 -k MAC
h -t 1.038520139 -s 23 -d -1 -p ACK -e 38 -c 2 -a 0 -i 0 -k MAC
r -t 1.038535139 -s 23 -d 23 -p tcp -e 1540 -c 2 -a 0 -i 8 -k AGT
+ -t 1.038535139 -s 23 -d -1 -p ack -e 40 -c 2 -a 0 -i 10 -k AGT 
- -t 1.038535139 -s 23 -d -1 -p ack -e 40 -c 2 -a 0 -i 10 -k AGT
h -t 1.038535139 -s 23 -d -1 -p ack -e 40 -c 2 -a 0 -i 10 -k AGT
+ -t 1.038535139 -s 23 -d 36 -p ack -e 76 -c 2 -a 0 -i 10 -k RTR 
- -t 1.038535139 -s 23 -d 36 -p ack -e 76 -c 2 -a 0 -i 10 -k RTR
h -t 1.038535139 -s 23 -d 36 -p ack -e 76 -c 2 -a 0 -i 10 -k RTR
r -t 1.038824740 -s 36 -d -1 -p ACK -e 38 -c 2 -a 0 -i 0 -k MAC
+ -t 1.039339306 -s 16 -d -1 -p RTS -e 44 -c 2 -a 0 -i 0 -k MAC 
- -t 1.039339306 -s 16 -d -1 -p RTS -e 44 -c 2 -a 0 -i 0 -k MAC
h -t 1.039339306 -s 16 -d -1 -p RTS -e 44 -c 2 -a 0 -i 0 -k MAC
r -t 1.039691907 -s 3 -d -1 -p RTS -e 44 -c 2 -a 0 -i 0 -k MAC
+ -t 1.039701907 -s 3 -d -1 -p CTS -e 38 -c 2 -a 0 -i 0 -k MAC 
- -t 1.039701907 -s 3 -d -1 -p CTS -e 38 -c 2 -a 0 -i 0 -k MAC
h -t 1.039701907 -s 3 -d -1 -p CTS -e 38 -c 2 -a 0 -i 0 -k MAC
r -t 1.040006508 -s 16 -d -1 -p CTS -e 38 -c 2 -a 0 -i 0 -k MAC
+ -t 1.040016508 -s 16 -d 3 -p DSR -e 102 -c 2 -a 0 -i 6 -k MAC 
- -t 1.040016508 -s 16 -d 3 -p DSR -e 102 -c 2 -a 0 -i 6 -k MAC
h -t 1.040016508 -s 16 -d 3 -p DSR -e 102 -c 2 -a 0 -i 6 -k MAC
r -t 1.040833109 -s 3 -d 3 -p DSR -e 44 -c 2 -a 0 -i 6 -k MAC
+ -t 1.040843109 -s 3 -d -1 -p ACK -e 38 -c 2 -a 0 -i 0 -k MAC 
- -t 1.040843109 -s 3 -d -1 -p ACK -e 38 -c 2 -a 0 -i 0 -k MAC
h -t 1.040843109 -s 3 -d -1 -p ACK -e 38 -c 2 -a 0 -i 0 -k MAC
+ -t 1.040858109 -s 3 -d 16 -p tcp -e 76 -c 2 -a 0 -i 0 -k RTR 
- -t 1.040858109 -s 3 -d 16 -p tcp -e 76 -c 2 -a 0 -i 0 -k RTR
h -t 1.040858109 -s 3 -d 16 -p tcp -e 76 -c 2 -a 0 -i 0 -k RTR
r -t 1.041147710 -s 16 -d -1 -p ACK -e 38 -c 2 -a 0 -i 0 -k MAC
+ -t 1.041277109 -s 3 -d -1 -p RTS -e 44 -c 2 -a 0 -i 0 -k MAC 
- -t 1.041277109 -s 3 -d -1 -p RTS -e 44 -c 2 -a 0 -i 0 -k MAC
h -t 1.041277109 -s 3 -d -1 -p RTS -e 44 -c 2 -a 0 -i 0 -k MAC
r -t 1.041629710 -s 16 -d -1 -p RTS -e 44 -c 2 -a 0 -i 0 -k MAC
+ -t 1.041639710 -s 16 -d -1 -p CTS -e 38 -c 2 -a 0 -i 0 -k MAC 
- -t 1.041639710 -s 16 -d -1 -p CTS -e 38 -c 2 -a 0 -i 0 -k MAC
h -t 1.041639710 -s 16 -d -1 -p CTS -e 38 -c 2 -a 0 -i 0 -k MAC
r -t 1.041944311 -s 3 -d -1 -p CTS -e 38 -c 2 -a 0 -i 0 -k MAC
+ -t 1.041954311 -s 3 -d 16 -p tcp -e 134 -c 2 -a 0 -i 0 -k MAC 
- -t 1.041954311 -s 3 -d 16 -p tcp -e 134 -c 2 -a 0 -i 0 -k MAC
h -t 1.041954311 -s 3 -d 16 -p tcp -e 134 -c 2 -a 0 -i 0 -k MAC
r -t 1.043026912 -s 16 -d 16 -p tcp -e 76 -c 2 -a 0 -i 0 -k MAC
+ -t 1.043036912 -s 16 -d -1 -p ACK -e 38 -c 2 -a 0 -i 0 -k MAC 
- -t 1.043036912 -s 16 -d -1 -p ACK -e 38 -c 2 -a 0 -i 0 -k MAC
h -t 1.043036912 -s 16 -d -1 -p ACK -e 38 -c 2 -a 0 -i 0 -k MAC
r -t 1.043051912 -s 16 -d 16 -p tcp -e 40 -c 2 -a 0 -i 0 -k AGT
+ -t 1.043051912 -s 16 -d -1 -p ack -e 40 -c 2 -a 0 -i 11 -k AGT 
- -t 1.043051912 -s 16 -d -1 -p ack -e 40 -c 2 -a 0 -i 11 -k AGT
h -t 1.043051912 -s 16 -d -1 -p ack -e 40 -c 2 -a 0 -i 11 -k AGT
+ -t 1.043051912 -s 16 -d 3 -p ack -e 76 -c 2 -a 0 -i 11 -k RTR 
- -t 1.043051912 -s 16 -d 3 -p ack -e 76 -c 2 -a 0 -i 11 -k RTR
h -t 1.043051912 -s 16 -d 3 -p ack -e 76 -c 2 -a 0 -i 11 -k RTR
r -t 1.043341513 -s 3 -d -1 -p ACK -e 38 -c 2 -a 0 -i 0 -k MAC
+ -t 1.043471657 -s 36 -d -1 -p RTS -e 44 -c 2 -a 0 -i 0 -k MAC 
- -t 1.043471657 -s 36 -d -1 -p RTS -e 44 -c 2 -a 0 -i 0 -k MAC
h -t 1.043471657 -s 36 -d -1 -p RTS -e 44 -c 2 -a 0 -i 0 -k MAC
r -t 1.043824258 -s 23 -d -1 -p RTS -e 44 -c 2 -a 0 -i 0 -k MAC
+ -t 1.043834258 -s 23 -d -1 -p CTS -e 38 -c 2 -a 0 -i 0 -k MAC 
- -t 1.043834258 -s 23 -d -1 -p CTS -e 38 -c 2 -a 0 -i 0 -k MAC
h -t 1.043834258 -s 23 -d -1 -p CTS -e 38 -c 2 -a 0 -i 0 -k MAC
r -t 1.044138859 -s 36 -d -1 -p CTS -e 38 -c 2 -a 0 -i 0 -k MAC
+ -t 1.044148859 -s 36 -d 23 -p tcp -e 1634 -c 2 -a 0 -i 9 -k MAC 
- -t 1.044148859 -s 36 -d 23 -p tcp -e 1634 -c 2 -a 0 -i 9 -k MAC
h -t 1.044148859 -s 36 -d 23 -p tcp -e 1634 -c 2 -a 0 -i 9 -k MAC
r -t 1.057221460 -s 23 -d 23 -p tcp -e 1576 -c 2 -a 0 -i 9 -k MAC
+ -t 1.057231460 -s 23 -d -1 -p ACK -e 38 -c 2 -a 0 -i 0 -k MAC 
- -t 1.057231460 -s 23 -d -1 -p ACK -e 38 -c 2 -a 0 -i 0 -k MAC
h -t 1.057231460 -s 23 -d -1 -p ACK -e 38 -c 2 -a 0 -i 0 -k MAC
r -t 1.057246460 -s 23 -d 23 -p tcp -e 1540 -c 2 -a 0 -i 9 -k AGT
+ -t 1.057246460 -s 23 -d -1 -p ack -e 40 -c 2 -a 0 -i 12 -k AGT 
- -t 1.057246460 -s 23 -d -1 -p ack -e 40 -c 2 -a 0 -i 12 -k AGT
h -t 1.057246460 -s 23 -d -1 -p ack -e 40 -c 2 -a 0 -i 12 -k AGT
+ -t 1.057246460 -s 23 -d 36 -p ack -e 76 -c 2 -a 0 -i 12 -k RTR 
- -t 1.057246460 -s 23 -d 36 -p ack -e 76 -c 2 -a 0 -i 12 -k RTR
h -t 1.057246460 -s 23 -d 36 -p ack -e 76 -c 2 -a 0 -i 12 -k RTR
r -t 1.057536061 -s 36 -d -1 -p ACK -e 38 -c 2 -a 0 -i 0 -k MAC
+ -t 1.057605460 -s 23 -d -1 -p RTS -e 44 -c 2 -a 0 -i 0 -k MAC 
- -t 1.057605460 -s 23 -d -1 -p RTS -e 44 -c 2 -a 0 -i 0 -k MAC
h -t 1.057605460 -s 23 -d -1 -p RTS -e 44 -c 2 -a 0 -i 0 -k MAC
r -t 1.057958061 -s 36 -d -1 -p RTS -e 44 -c 2 -a 0 -i 0 -k MAC
+ -t 1.057968061 -s 36 -d -1 -p CTS -e 38 -c 2 -a 0 -i 0 -k MAC 
- -t 1.057968061 -s 36 -d -1 -p CTS -e 38 -c 2 -a 0 -i 0 -k MAC
h -t 1.057968061 -s 36 -d -1 -p CTS -e 38 -c 2 -a 0 -i 0 -k MAC
r -t 1.058272662 -s 23 -d -1 -p CTS -e 38 -c 2 -a 0 -i 0 -k MAC
+ -t 1.058282662 -s 23 -d 36 -p ack -e 134 -c 2 -a 0 -i 10 -k MAC 
- -t 1.058282662 -s 23 -d 36 -p ack -e 134 -c 2 -a 0 -i 10 -k MAC
h -t 1.058282662 -s 23 -d 36 -p ack -e 134 -c 2 -a 0 -i 10 -k MAC
r -t 1.059355263 -s 36 -d 36 -p ack -e 76 -c 2 -a 0 -i 10 -k MAC
+ -t 1.059365263 -s 36 -d -1 -p ACK -e 38 -c 2 -a 0 -i 0 -k MAC 
- -t 1.059365263 -s 36 -d -1 -p ACK -e 38 -c 2 -a 0 -i 0 -k MAC
h -t 1.059365263 -s 36 -d -1 -p ACK -e 38 -c 2 -a 0 -i 0 -k MAC
r -t 1.059380263 -s 36 -d 36 -p ack -e 40 -c 2 -a 0 -i 10 -k AGT
+ -t 1.059380263 -s 36 -d -1 -p tcp -e 1540 -c 2 -a 0 -i 13 -k AGT 
- -t 1.059380263 -s 36 -d -1 -p tcp -e 1540 -c 2 -a 0 -i 13 -k AGT
h -t 1.059380263 -s 36 -d -1 -p tcp -e 1540 -c 2 -a 0 -i 13 -k AGT
+ -t 1.059380263 -s 36 -d -1 -p tcp -e 1540 -c 2 -a 0 -i 14 -k AGT 
- -t 1.059380263 -s 36 -d -1 -p tcp -e 1540 -c 2 -a 0 -i 14 -k AGT
h -t 1.059380263 -s 36 -d -1 -p tcp -e 1540 -c 2 -a 0 -i 14 -k AGT
+ -t 1.059380263 -s 36 -d 23 -p tcp -e 1560 -c 2 -a 0 -i 13 -k RTR 
- -t 1.059380263 -s 36 -d 23 -p tcp -e 1560 -c 2 -a 0 -i 13 -k RTR
h -t 1.059380263 -s 36 -d 23 -p tcp -e 1560 -c 2 -a 0 -i 13 -k RTR
+ -t 1.059380263 -s 36 -d 23 -p tcp -e 1560 -c 2 -a 0 -i 14 -k RTR 
- -t 1.059380263 -s 36 -d 23 -p tcp -e 1560 -c 2 -a 0 -i 14 -k RTR
h -t 1.059380263 -s 36 -d 23 -p tcp -e 1560 -c 2 -a 0 -i 14 -k RTR
r -t 1.059669863 -s 23 -d -1 -p ACK -e 38 -c 2 -a 0 -i 0 -k MAC
+ -t 1.059739863 -s 23 -d -1 -p RTS -e 44 -c 2 -a 0 -i 0 -k MAC 
- -t 1.059739863 -s 23 -d -1 -p RTS -e 44 -c 2 -a 0 -i 0 -k MAC
h -t 1.059739863 -s 23 -d -1 -p RTS -e 44 -c 2 -a 0 -i 0 -k MAC
r -t 1.060092464 -s 36 -d -1 -p RTS -e 44 -c 2 -a 0 -i 0 -k MAC
+ -t 1.060102464 -s 36 -d -1 -p CTS -e 38 -c 2 -a 0 -i 0 -k MAC 
- -t 1.060102464 -s 36 -d -1 -p CTS -e 38 -c 2 -a 0 -i 0 -k MAC
h -t 1.060102464 -s 36 -d -1 -p CTS -e 38 -c 2 -a 0 -i 0 -k MAC
r -t 1.060407065 -s 23 -d -1 -p CTS -e 38 -c 2 -a 0 -i 0 -k MAC
+ -t 1.060417065 -s 23 -d 36 -p ack -e 134 -c 2 -a 0 -i 12 -k MAC 
- -t 1.060417065 -s 23 -d 36 -p ack -e 134 -c 2 -a 0 -i 12 -k MAC
h -t 1.060417065 -s 23 -d 36 -p ack -e 134 -c 2 -a 0 -i 12 -k MAC
r -t 1.061489666 -s 36 -d 36 -p ack -e 76 -c 2 -a 0 -i 12 -k MAC
+ -t 1.061499666 -s 36 -d -1 -p ACK -e 38 -c 2 -a 0 -i 0 -k MAC 
- -t 1.061499666 -s 36 -d -1 -p ACK -e 38 -c 2 -a 0 -i 0 -k MAC
h -t 1.061499666 -s 36 -d -1 -p ACK -e 38 -c 2 -a 0 -i 0 -k MAC
r -t 1.061514666 -s 36 -d 36 -p ack -e 40 -c 2 -a 0 -i 12 -k AGT
+ -t 1.061514666 -s 36 -d -1 -p tcp -e 1540 -c 2 -a 0 -i 15 -k AGT 
- -t 1.061514666 -s 36 -d -1 -p tcp -e 1540 -c 2 -a 0 -i 15 -k AGT
h -t 1.061514666 -s 36 -d -1 -p tcp -e 1540 -c 2 -a 0 -i 15 -k AGT
+ -t 1.061514666 -s 36 -d -1 -p tcp -e 1540 -c 2 -a 0 -i 16 -k AGT 
- -t 1.061514666 -s 36 -d -1 -p tcp -e 1540 -c 2 -a 0 -i 16 -k AGT
h -t 1.061514666 -s 36 -d -1 -p tcp -e 1540 -c 2 -a 0 -i 16 -k AGT
+ -t 1.061514666 -s 36 -d 23 -p tcp -e 1560 -c 2 -a 0 -i 15 -k RTR 
- -t 1.061514666 -s 36 -d 23 -p tcp -e 1560 -c 2 -a 0 -i 15 -k RTR
h -t 1.061514666 -s 36 -d 23 -p tcp -e 1560 -c 2 -a 0 -i 15 -k RTR
+ -t 1.061514666 -s 36 -d 23 -p tcp -e 1560 -c 2 -a 0 -i 16 -k RTR 
- -t 1.061514666 -s 36 -d 23 -p tcp -e 1560 -c 2 -a 0 -i 16 -k RTR
h -t 1.061514666 -s 36 -d 23 -p tcp -e 1560 -c 2 -a 0 -i 16 -k RTR
r -t 1.061804267 -s 23 -d -1 -p ACK -e 38 -c 2 -a 0 -i 0 -k MAC
+ -t 1.062044232 -s 16 -d -1 -p RTS -e 44 -c 2 -a 0 -i 0 -k MAC 
- -t 1.062044232 -s 16 -d -1 -p RTS -e 44 -c 2 -a 0 -i 0 -k MAC
h -t 1.062044232 -s 16 -d -1 -p RTS -e 44 -c 2 -a 0 -i 0 -k MAC
r -t 1.062396833 -s 3 -d -1 -p RTS -e 44 -c 2 -a 0 -i 0 -k MAC
+ -t 1.062406833 -s 3 -d -1 -p CTS -e 38 -c 2 -a 0 -i 0 -k MAC 
- -t 1.062406833 -s 3 -d -1 -p CTS -e 38 -c 2 -a 0 -i 0 -k MAC
h -t 1.062406833 -s 3 -d -1 -p CTS -e 38 -c 2 -a 0 -i 0 -k MAC
r -t 1.062711434 -s 16 -d -1 -p CTS -e 38 -c 2 -a 0 -i 0 -k MAC
+ -t 1.062721434 -s 16 -d 3 -p ack -e 134 -c 2 -a 0 -i 11 -k MAC 
- -t 1.062721434 -s 16 -d 3 -p ack -e 134 -c 2 -a 0 -i 11 -k MAC
h -t 1.062721434 -s 16 -d 3 -p ack -e 134 -c 2 -a 0 -i 11 -k MAC
r -t 1.063794035 -s 3 -d 3 -p ack -e 76 -c 2 -a 0 -i 11 -k MAC
+ -t 1.063804035 -s 3 -d -1 -p ACK -e 38 -c 2 -a 0 -i 0 -k MAC 
- -t 1.063804035 -s 3 -d -1 -p ACK -e 38 -c 2 -a 0 -i 0 -k MAC
h -t 1.063804035 -s 3 -d -1 -p ACK -e 38 -c 2 -a 0 -i 0 -k MAC
r -t 1.063819035 -s 3 -d 3 -p ack -e 40 -c 2 -a 0 -i 11 -k AGT
+ -t 1.063819035 -s 3 -d -1 -p tcp -e 1540 -c 2 -a 0 -i 17 -k AGT 
- -t 1.063819035 -s 3 -d -1 -p tcp -e 1540 -c 2 -a 0 -i 17 -k AGT
h -t 1.063819035 -s 3 -d -1 -p tcp -e 1540 -c 2 -a 0 -i 17 -k AGT
+ -t 1.063819035 -s 3 -d -1 -p tcp -e 1540 -c 2 -a 0 -i 18 -k AGT 
- -t 1.063819035 -s 3 -d -1 -p tcp -e 1540 -c 2 -a 0 -i 18 -k AGT
h -t 1.063819035 -s 3 -d -1 -p tcp -e 1540 -c 2 -a 0 -i 18 -k AGT