Sconfig 0.00000 tap: on snoop: rts? on errs? on
Sconfig 0.00000 salvage: on !bd replies? on
Sconfig 0.00000 grat error: on grat reply: on
Sconfig 0.00000 $reply for props: on ring 0 search: on
Sconfig 0.00000 using MOBICACHE
s -t 1.000000000 -Hs 3 -Hd -2 -Ni 3 -Nx 536.00 -Ny 395.00 -Nz 0.00 -Ne -1.000000 -Nl AGT -Nw --- -Ma 0 -Md 0 -Ms 0 -Mt 0 -Is 3.0 -Id 16.0 -It tcp -Il 40 -If 0 -Ii 0 -Iv 32 -Pn tcp -Ps 0 -Pa 0 -Pf 0 -Po 0 
r -t 1.000000000 -Hs 3 -Hd -2 -Ni 3 -Nx 536.00 -Ny 395.00 -Nz 0.00 -Ne -1.000000 -Nl RTR -Nw --- -Ma 0 -Md 0 -Ms 0 -Mt 0 -Is 3.0 -Id 16.0 -It tcp -Il 40 -If 0 -Ii 0 -Iv 32 -Pn tcp -Ps 0 -Pa 0 -Pf 0 -Po 0 
s -t 1.000000000 -Hs 36 -Hd -2 -Ni 36 -Nx 586.00 -Ny 195.00 -Nz 0.00 -Ne -1.000000 -Nl AGT -Nw --- -Ma 0 -Md 0 -Ms 0 -Mt 0 -Is 36.0 -Id 23.0 -It tcp -Il 40 -If 0 -Ii 2 -Iv 32 -Pn tcp -Ps 0 -Pa 0 -Pf 0 -Po 0 
r -t 1.000000000 -Hs 36 -Hd -2 -Ni 36 -Nx 586.00 -Ny 195.00 -Nz 0.00 -Ne -1.000000 -Nl RTR -Nw --- -Ma 0 -Md 0 -Ms 0 -Mt 0 -Is 36.0 -Id 23.0 -It tcp -Il 40 -If 0 -Ii 2 -Iv 32 -Pn tcp -Ps 0 -Pa 0 -Pf 0 -Po 0 
s -t 1.002763193 -Hs 36 -Hd -1 -Ni 36 -Nx 586.00 -Ny 195.00 -Nz 0.00 -Ne -1.000000 -Nl RTR -Nw --- -Ma 0 -Md 0 -Ms 0 -Mt 0 -Is 36.255 -Id 23.255 -It DSR -Il 32 -If 0 -Ii 3 -Iv 32 -P dsr -Ph 1 -Pq 1 -Ps 1 -Pp 0 -Pn 1 -Pl 0 -Pe 0->0 -Pw 0 -Pm 0 -Pc 0 -Pb 0->0 
s -t 1.003298193 -Hs 36 -Hd -1 -Ni 36 -Nx 586.00 -Ny 195.00 -Nz 0.00 -Ne -1.000000 -Nl MAC -Nw --- -Ma 0 -Md ffffffff -Ms 24 -Mt 800 -Is 36.255 -Id 23.255 -It DSR -Il 90 -If 0 -Ii 3 -Iv 32 -P dsr -Ph 1 -Pq 1 -Ps 1 -Pp 0 -Pn 1 -Pl 0 -Pe 0->0 -Pw 0 -Pm 0 -Pc 0 -Pb 0->0 
r -t 1.004018359 -Hs 28 -Hd -1 -Ni 28 -Nx 586.00 -Ny 245.00 -Nz 0.00 -Ne -1.000000 -Nl MAC -Nw --- -Ma 0 -Md ffffffff -Ms 24 -Mt 800 -Is 36.255 -Id 23.255 -It DSR -Il 32 -If 0 -Ii 3 -Iv 32 -P dsr -Ph 1 -Pq 1 -Ps 1 -Pp 0 -Pn 1 -Pl 0 -Pe 0->0 -Pw 0 -Pm 0 -Pc 0 -Pb 0->0 
r -t 1.004018359 -Hs 35 -Hd -1 -Ni 35 -Nx 536.00 -Ny 195.00 -Nz 0.00 -Ne -1.000000 -Nl MAC -Nw --- -Ma 0 -Md ffffffff -Ms 24 -Mt 800 -Is 36.255 -Id 23.255 -It DSR -Il 32 -If 0 -Ii 3 -Iv 32 -P dsr -Ph 1 -Pq 1 -Ps 1 -Pp 0 -Pn 1 -Pl 0 -Pe 0->0 -Pw 0 -Pm 0 -Pc 0 -Pb 0->0 
r -t 1.004018359 -Hs 37 -Hd -1 -Ni 37 -Nx 636.00 -Ny 195.00 -Nz 0.00 -Ne -1.000000 -Nl MAC -Nw --- -Ma 0 -Md ffffffff -Ms 24 -Mt 800 -Is 36.255 -Id 23.255 -It DSR -Il 32 -If 0 -Ii 3 -Iv 32 -P dsr -Ph 1 -Pq 1 -Ps 1 -Pp 0 -Pn 1 -Pl 0 -Pe 0->0 -Pw 0 -Pm 0 -Pc 0 -Pb 0->0 
r -t 1.004018428 -Hs 27 -Hd -1 -Ni 27 -Nx 536.00 -Ny 245.00 -Nz 0.00 -Ne -1.000000 -Nl MAC -Nw --- -Ma 0 -Md ffffffff -Ms 24 -Mt 800 -Is 36.255 -Id 23.255 -It DSR -Il 32 -If 0 -Ii 3 -Iv 32 -P dsr -Ph 1 -Pq 1 -Ps 1 -Pp 0 -Pn 1 -Pl 0 -Pe 0->0 -Pw 0 -Pm 0 -Pc 0 -Pb 0->0 
r -t 1.004018428 -Hs 29 -Hd -1 -Ni 29 -Nx 636.00 -Ny 245.00 -Nz 0.00 -Ne -1.000000 -Nl MAC -Nw --- -Ma 0 -Md ffffffff -Ms 24 -Mt 800 -Is 36.255 -Id 23.255 -It DSR -Il 32 -If 0 -Ii 3 -Iv 32 -P dsr -Ph 1 -Pq 1 -Ps 1 -Pp 0 -Pn 1 -Pl 0 -Pe 0->0 -Pw 0 -Pm 0 -Pc 0 -Pb 0->0 
r -t 1.004018526 -Hs 20 -Hd -1 -Ni 20 -Nx 586.00 -Ny 295.00 -Nz 0.00 -Ne -1.000000 -Nl MAC -Nw --- -Ma 0 -Md ffffffff -Ms 24 -Mt 800 -Is 36.255 -Id 23.255 -It DSR -Il 32 -If 0 -Ii 3 -Iv 32 -P dsr -Ph 1 -Pq 1 -Ps 1 -Pp 0 -Pn 1 -Pl 0 -Pe 0->0 -Pw 0 -Pm 0 -Pc 0 -Pb 0->0 
r -t 1.004018526 -Hs 34 -Hd -1 -Ni 34 -Nx 486.00 -Ny 195.00 -Nz 0.00 -Ne -1.000000 -Nl MAC -Nw --- -Ma 0 -Md ffffffff -Ms 24 -Mt 800 -Is 36.255 -Id 23.255 -It DSR -Il 32 -If 0 -Ii 3 -Iv 32 -P dsr -Ph 1 -Pq 1 -Ps 1 -Pp 0 -Pn 1 -Pl 0 -Pe 0->0 -Pw 0 -Pm 0 -Pc 0 -Pb 0->0 
r -t 1.004018526 -Hs 38 -Hd -1 -Ni 38 -Nx 686.00 -Ny 195.00 -Nz 0.00 -Ne -1.000000 -Nl MAC -Nw --- -Ma 0 -Md ffffffff -Ms 24 -Mt 800 -Is 36.255 -Id 23.255 -It DSR -Il 32 -If 0 -Ii 3 -Iv 32 -P dsr -Ph 1 -Pq 1 -Ps 1 -Pp 0 -Pn 1 -Pl 0 -Pe 0->0 -Pw 0 -Pm 0 -Pc 0 -Pb 0->0 
r -t 1.004018565 -Hs 19 -Hd -1 -Ni 19 -Nx 536.00 -Ny 295.00 -Nz 0.00 -Ne -1.000000 -Nl MAC -Nw --- -Ma 0 -Md ffffffff -Ms 24 -Mt 800 -Is 36.255 -Id 23.255 -It DSR -Il 32 -If 0 -Ii 3 -Iv 32 -P dsr -Ph 1 -Pq 1 -Ps 1 -Pp 0 -Pn 1 -Pl 0 -Pe 0->0 -Pw 0 -Pm 0 -Pc 0 -Pb 0->0 
r -t 1.004018565 -Hs 26 -Hd -1 -Ni 26 -Nx 486.00 -Ny 245.00 -Nz 0.00 -Ne -1.000000 -Nl MAC -Nw --- -Ma 0 -Md ffffffff -Ms 24 -Mt 800 -Is 36.255 -Id 23.255 -It DSR -Il 32 -If 0 -Ii 3 -Iv 32 -P dsr -Ph 1 -Pq 1 -Ps 1 -Pp 0 -Pn 1 -Pl 0 -Pe 0->0 -Pw 0 -Pm 0 -Pc 0 -Pb 0->0 
r -t 1.004018565 -Hs 21 -Hd -1 -Ni 21 -Nx 636.00 -Ny 295.00 -Nz 0.00 -Ne -1.000000 -Nl MAC -Nw --- -Ma 0 -Md ffffffff -Ms 24 -Mt 800 -Is 36.255 -Id 23.255 -It DSR -Il 32 -If 0 -Ii 3 -Iv 32 -P dsr -Ph 1 -Pq 1 -Ps 1 -Pp 0 -Pn 1 -Pl 0 -Pe 0->0 -Pw 0 -Pm 0 -Pc 0 -Pb 0->0 
r -t 1.004018565 -Hs 30 -Hd -1 -Ni 30 -Nx 686.00 -Ny 245.00 -Nz 0.00 -Ne -1.000000 -Nl MAC -Nw --- -Ma 0 -Md ffffffff -Ms 24 -Mt 800 -Is 36.255 -Id 23.255 -It DSR -Il 32 -If 0 -Ii 3 -Iv 32 -P dsr -Ph 1 -Pq 1 -Ps 1 -Pp 0 -Pn 1 -Pl 0 -Pe 0->0 -Pw 0 -Pm 0 -Pc 0 -Pb 0->0 
r -t 1.004018664 -Hs 18 -Hd -1 -Ni 18 -Nx 486.00 -Ny 295.00 -Nz 0.00 -Ne -1.000000 -Nl MAC -Nw --- -Ma 0 -Md ffffffff -Ms 24 -Mt 800 -Is 36.255 -Id 23.255 -It DSR -Il 32 -If 0 -Ii 3 -Iv 32 -P dsr -Ph 1 -Pq 1 -Ps 1 -Pp 0 -Pn 1 -Pl 0 -Pe 0->0 -Pw 0 -Pm 0 -Pc 0 -Pb 0->0 
r -t 1.004018664 -Hs 22 -Hd -1 -Ni 22 -Nx 686.00 -Ny 295.00 -Nz 0.00 -Ne -1.000000 -Nl MAC -Nw --- -Ma 0 -Md ffffffff -Ms 24 -Mt 800 -Is 36.255 -Id 23.255 -It DSR -Il 32 -If 0 -Ii 3 -Iv 32 -P dsr -Ph 1 -Pq 1 -Ps 1 -Pp 0 -Pn 1 -Pl 0 -Pe 0->0 -Pw 0 -Pm 0 -Pc 0 -Pb 0->0 
r -t 1.004018693 -Hs 12 -Hd -1 -Ni 12 -Nx 586.00 -Ny 345.00 -Nz 0.00 -Ne -1.000000 -Nl MAC -Nw --- -Ma 0 -Md ffffffff -Ms 24 -Mt 800 -Is 36.255 -Id 23.255 -It DSR -Il 32 -If 0 -Ii 3 -Iv 32 -P dsr -Ph 1 -Pq 1 -Ps 1 -Pp 0 -Pn 1 -Pl 0 -Pe 0->0 -Pw 0 -Pm 0 -Pc 0 -Pb 0->0 
r -t 1.004018693 -Hs 33 -Hd -1 -Ni 33 -Nx 436.00 -Ny 195.00 -Nz 0.00 -Ne -1.000000 -Nl MAC -Nw --- -Ma 0 -Md ffffffff -Ms 24 -Mt 800 -Is 36.255 -Id 23.255 -It DSR -Il 32 -If 0 -Ii 3 -Iv 32 -P dsr -Ph 1 -Pq 1 -Ps 1 -Pp 0 -Pn 1 -Pl 0 -Pe 0->0 -Pw 0 -Pm 0 -Pc 0 -Pb 0->0 
r -t 1.004018693 -Hs 39 -Hd -1 -Ni 39 -Nx 736.00 -Ny 195.00 -Nz 0.00 -Ne -1.000000 -Nl MAC -Nw --- -Ma 0 -Md ffffffff -Ms 24 -Mt 800 -Is 36.255 -Id 23.255 -It DSR -Il 32 -If 0 -Ii 3 -Iv 32 -P dsr -Ph 1 -Pq 1 -Ps 1 -Pp 0 -Pn 1 -Pl 0 -Pe 0->0 -Pw 0 -Pm 0 -Pc 0 -Pb 0->0 
r -t 1.004018720 -Hs 11 -Hd -1 -Ni 11 -Nx 536.00 -Ny 345.00 -Nz 0.00 -Ne -1.000000 -Nl MAC -Nw --- -Ma 0 -Md ffffffff -Ms 24 -Mt 800 -Is 36.255 -Id 23.255 -It DSR -Il 32 -If 0 -Ii 3 -Iv 32 -P dsr -Ph 1 -Pq 1 -Ps 1 -Pp 0 -Pn 1 -Pl 0 -Pe 0->0 -Pw 0 -Pm 0 -Pc 0 -Pb 0->0 
r -t 1.004018720 -Hs 25 -Hd -1 -Ni 25 -Nx 436.00 -Ny 245.00 -Nz 0.00 -Ne -1.000000 -Nl MAC -Nw --- -Ma 0 -Md ffffffff -Ms 24 -Mt 800 -Is 36.255 -Id 23.255 -It DSR -Il 32 -If 0 -Ii 3 -Iv 32 -P dsr -Ph 1 -Pq 1 -Ps 1 -Pp 0 -Pn 1 -Pl 0 -Pe 0->0 -Pw 0 -Pm 0 -Pc 0 -Pb 0->0 
r -t 1.004018720 -Hs 13 -Hd -1 -Ni 13 -Nx 636.00 -Ny 345.00 -Nz 0.00 -Ne -1.000000 -Nl MAC -Nw --- -Ma 0 -Md ffffffff -Ms 24 -Mt 800 -Is 36.255 -Id 23.255 -It DSR -Il 32 -If 0 -Ii 3 -Iv 32 -P dsr -Ph 1 -Pq 1 -Ps 1 -Pp 0 -Pn 1 -Pl 0 -Pe 0->0 -Pw 0 -Pm 0 -Pc 0 -Pb 0->0 
r -t 1.004018720 -Hs 31 -Hd -1 -Ni 31 -Nx 736.00 -Ny 245.00 -Nz 0.00 -Ne -1.000000 -Nl MAC -Nw --- -Ma 0 -Md ffffffff -Ms 24 -Mt 800 -Is 36.255 -Id 23.255 -It DSR -Il 32 -If 0 -Ii 3 -Iv 32 -P dsr -Ph 1 -Pq 1 -Ps 1 -Pp 0 -Pn 1 -Pl 0 -Pe 0->0 -Pw 0 -Pm 0 -Pc 0 -Pb 0->0 
r -t 1.004018793 -Hs 10 -Hd -1 -Ni 10 -Nx 486.00 -Ny 345.00 -Nz 0.00 -Ne -1.000000 -Nl MAC -Nw --- -Ma 0 -Md ffffffff -Ms 24 -Mt 800 -Is 36.255 -Id 23.255 -It DSR -Il 32 -If 0 -Ii 3 -Iv 32 -P dsr -Ph 1 -Pq 1 -Ps 1 -Pp 0 -Pn 1 -Pl 0 -Pe 0->0 -Pw 0 -Pm 0 -Pc 0 -Pb 0->0 
r -t 1.004018793 -Hs 17 -Hd -1 -Ni 17 -Nx 436.00 -Ny 295.00 -Nz 0.00 -Ne -1.000000 -Nl MAC -Nw --- -Ma 0 -Md ffffffff -Ms 24 -Mt 800 -Is 36.255 -Id 23.255 -It DSR -Il 32 -If 0 -Ii 3 -Iv 32 -P dsr -Ph 1 -Pq 1 -Ps 1 -Pp 0 -Pn 1 -Pl 0 -Pe 0->0 -Pw 0 -Pm 0 -Pc 0 -Pb 0->0 
r -t 1.004018793 -Hs 14 -Hd -1 -Ni 14 -Nx 686.00 -Ny 345.00 -Nz 0.00 -Ne -1.000000 -Nl MAC -Nw --- -Ma 0 -Md ffffffff -Ms 24 -Mt 800 -Is 36.255 -Id 23.255 -It DSR -Il 32 -If 0 -Ii 3 -Iv 32 -P dsr -Ph 1 -Pq 1 -Ps 1 -Pp 0 -Pn 1 -Pl 0 -Pe 0->0 -Pw 0 -Pm 0 -Pc 0 -Pb 0->0 
r -t 1.004018793 -Hs 23 -Hd -1 -Ni 23 -Nx 736.00 -Ny 295.00 -Nz 0.00 -Ne -1.000000 -Nl MAC -Nw --- -Ma 0 -Md ffffffff -Ms 24 -Mt 800 -Is 36.255 -Id 23.255 -It DSR -Il 32 -If 0 -Ii 3 -Iv 32 -P dsr -Ph 1 -Pq 1 -Ps 1 -Pp 0 -Pn 1 -Pl 0 -Pe 0->0 -Pw 0 -Pm 0 -Pc 0 -Pb 0->0 
r -t 1.004018859 -Hs 4 -Hd -1 -Ni 4 -Nx 586.00 -Ny 395.00 -Nz 0.00 -Ne -1.000000 -Nl MAC -Nw --- -Ma 0 -Md ffffffff -Ms 24 -Mt 800 -Is 36.255 -Id 23.255 -It DSR -Il 32 -If 0 -Ii 3 -Iv 32 -P dsr -Ph 1 -Pq 1 -Ps 1 -Pp 0 -Pn 1 -Pl 0 -Pe 0->0 -Pw 0 -Pm 0 -Pc 0 -Pb 0->0 
r -t 1.004018859 -Hs 32 -Hd -1 -Ni 32 -Nx 386.00 -Ny 195.00 -Nz 0.00 -Ne -1.000000 -Nl MAC -Nw --- -Ma 0 -Md ffffffff -Ms 24 -Mt 800 -Is 36.255 -Id 23.255 -It DSR -Il 32 -If 0 -Ii 3 -Iv 32 -P dsr -Ph 1 -Pq 1 -Ps 1 -Pp 0 -Pn 1 -Pl 0 -Pe 0->0 -Pw 0 -Pm 0 -Pc 0 -Pb 0->0 
r -t 1.004018880 -Hs 3 -Hd -1 -Ni 3 -Nx 536.00 -Ny 395.00 -Nz 0.00 -Ne -1.000000 -Nl MAC -Nw --- -Ma 0 -Md ffffffff -Ms 24 -Mt 800 -Is 36.255 -Id 23.255 -It DSR -Il 32 -If 0 -Ii 3 -Iv 32 -P dsr -Ph 1 -Pq 1 -Ps 1 -Pp 0 -Pn 1 -Pl 0 -Pe 0->0 -Pw 0 -Pm 0 -Pc 0 -Pb 0->0 
r -t 1.004018880 -Hs 24 -Hd -1 -Ni 24 -Nx 386.00 -Ny 245.00 -Nz 0.00 -Ne -1.000000 -Nl MAC -Nw --- -Ma 0 -Md ffffffff -Ms 24 -Mt 800 -Is 36.255 -Id 23.255 -It DSR -Il 32 -If 0 -Ii 3 -Iv 32 -P dsr -Ph 1 -Pq 1 -Ps 1 -Pp 0 -Pn 1 -Pl 0 -Pe 0->0 -Pw 0 -Pm 0 -Pc 0 -Pb 0->0 
r -t 1.004018880 -Hs 5 -Hd -1 -Ni 5 -Nx 636.00 -Ny 395.00 -Nz 0.00 -Ne -1.000000 -Nl MAC -Nw --- -Ma 0 -Md ffffffff -Ms 24 -Mt 800 -Is 36.255 -Id 23.255 -It DSR -Il 32 -If 0 -Ii 3 -Iv 32 -P dsr -Ph 1 -Pq 1 -Ps 1 -Pp 0 -Pn 1 -Pl 0 -Pe 0->0 -Pw 0 -Pm 0 -Pc 0 -Pb 0->0 
r -t 1.004018900 -Hs 9 -Hd -1 -Ni 9 -Nx 436.00 -Ny 345.00 -Nz 0.00 -Ne -1.000000 -Nl MAC -Nw --- -Ma 0 -Md ffffffff -Ms 24 -Mt 800 -Is 36.255 -Id 23.255 -It DSR -Il 32 -If 0 -Ii 3 -Iv 32 -P dsr -Ph 1 -Pq 1 -Ps 1 -Pp 0 -Pn 1 -Pl 0 -Pe 0->0 -Pw 0 -Pm 0 -Pc 0 -Pb 0->0 
r -t 1.004018900 -Hs 15 -Hd -1 -Ni 15 -Nx 736.00 -Ny 345.00 -Nz 0.00 -Ne -1.000000 -Nl MAC -Nw --- -Ma 0 -Md ffffffff -Ms 24 -Mt 800 -Is 36.255 -Id 23.255 -It DSR -Il 32 -If 0 -Ii 3 -Iv 32 -P dsr -Ph 1 -Pq 1 -Ps 1 -Pp 0 -Pn 1 -Pl 0 -Pe 0->0 -Pw 0 -Pm 0 -Pc 0 -Pb 0->0 
r -t 1.004018938 -Hs 2 -Hd -1 -Ni 2 -Nx 486.00 -Ny 395.00 -Nz 0.00 -Ne -1.000000 -Nl MAC -Nw --- -Ma 0 -Md ffffffff -Ms 24 -Mt 800 -Is 36.255 -Id 23.255 -It DSR -Il 32 -If 0 -Ii 3 -Iv 32 -P dsr -Ph 1 -Pq 1 -Ps 1 -Pp 0 -Pn 1 -Pl 0 -Pe 0->0 -Pw 0 -Pm 0 -Pc 0 -Pb 0->0 
r -t 1.004018938 -Hs 16 -Hd -1 -Ni 16 -Nx 386.00 -Ny 295.00 -Nz 0.00 -Ne -1.000000 -Nl MAC -Nw --- -Ma 0 -Md ffffffff -Ms 24 -Mt 800 -Is 36.255 -Id 23.255 -It DSR -Il 32 -If 0 -Ii 3 -Iv 32 -P dsr -Ph 1 -Pq 1 -Ps 1 -Pp 0 -Pn 1 -Pl 0 -Pe 0->0 -Pw 0 -Pm 0 -Pc 0 -Pb 0->0 
r -t 1.004018938 -Hs 6 -Hd -1 -Ni 6 -Nx 686.00 -Ny 395.00 -Nz 0.00 -Ne -1.000000 -Nl MAC -Nw --- -Ma 0 -Md ffffffff -Ms 24 -Mt 800 -Is 36.255 -Id 23.255 -It DSR -Il 32 -If 0 -Ii 3 -Iv 32 -P dsr -Ph 1 -Pq 1 -Ps 1 -Pp 0 -Pn 1 -Pl 0 -Pe 0->0 -Pw 0 -Pm 0 -Pc 0 -Pb 0->0 
r -t 1.004019026 -Hs 1 -Hd -1 -Ni 1 -Nx 436.00 -Ny 395.00 -Nz 0.00 -Ne -1.000000 -Nl MAC -Nw --- -Ma 0 -Md ffffffff -Ms 24 -Mt 800 -Is 36.255 -Id 23.255 -It DSR -Il 32 -If 0 -Ii 3 -Iv 32 -P dsr -Ph 1 -Pq 1 -Ps 1 -Pp 0 -Pn 1 -Pl 0 -Pe 0->0 -Pw 0 -Pm 0 -Pc 0 -Pb 0->0 
r -t 1.004019026 -Hs 8 -Hd -1 -Ni 8 -Nx 386.00 -Ny 345.00 -Nz 0.00 -Ne -1.000000 -Nl MAC -Nw --- -Ma 0 -Md ffffffff -Ms 24 -Mt 800 -Is 36.255 -Id 23.255 -It DSR -Il 32 -If 0 -Ii 3 -Iv 32 -P dsr -Ph 1 -Pq 1 -Ps 1 -Pp 0 -Pn 1 -Pl 0 -Pe 0->0 -Pw 0 -Pm 0 -Pc 0 -Pb 0->0 
r -t 1.004019026 -Hs 7 -Hd -1 -Ni 7 -Nx 736.00 -Ny 395.00 -Nz 0.00 -Ne -1.000000 -Nl MAC -Nw --- -Ma 0 -Md ffffffff -Ms 24 -Mt 800 -Is 36.255 -Id 23.255 -It DSR -Il 32 -If 0 -Ii 3 -Iv 32 -P dsr -Ph 1 -Pq 1 -Ps 1 -Pp 0 -Pn 1 -Pl 0 -Pe 0->0 -Pw 0 -Pm 0 -Pc 0 -Pb 0->0 
r -t 1.004043359 -Hs 28 -Hd -1 -Ni 28 -Nx 586.00 -Ny 245.00 -Nz 0.00 -Ne -1.000000 -Nl RTR -Nw --- -Ma 0 -Md ffffffff -Ms 24 -Mt 800 -Is 36.255 -Id 23.255 -It DSR -Il 32 -If 0 -Ii 3 -Iv 32 -P dsr -Ph 1 -Pq 1 -Ps 1 -Pp 0 -Pn 1 -Pl 0 -Pe 0->0 -Pw 0 -Pm 0 -Pc 0 -Pb 0->0 
r -t 1.004043359 -Hs 35 -Hd -1 -Ni 35 -Nx 536.00 -Ny 195.00 -Nz 0.00 -Ne -1.000000 -Nl RTR -Nw --- -Ma 0 -Md ffffffff -Ms 24 -Mt 800 -Is 36.255 -Id 23.255 -It DSR -Il 32 -If 0 -Ii 3 -Iv 32 -P dsr -Ph 1 -Pq 1 -Ps 1 -Pp 0 -Pn 1 -Pl 0 -Pe 0->0 -Pw 0 -Pm 0 -Pc 0 -Pb 0->0 
r -t 1.004043359 -Hs 37 -Hd -1 -Ni 37 -Nx 636.00 -Ny 195.00 -Nz 0.00 -Ne -1.000000 -Nl RTR -Nw --- -Ma 0 -Md ffffffff -Ms 24 -Mt 800 -Is 36.255 -Id 23.255 -It DSR -Il 32 -If 0 -Ii 3 -Iv 32 -P dsr -Ph 1 -Pq 1 -Ps 1 -Pp 0 -Pn 1 -Pl 0 -Pe 0->0 -Pw 0 -Pm 0 -Pc 0 -Pb 0->0 
r -t 1.004043428 -Hs 27 -Hd -1 -Ni 27 -Nx 536.00 -Ny 245.00 -Nz 0.00 -Ne -1.000000 -Nl RTR -Nw --- -Ma 0 -Md ffffffff -Ms 24 -Mt 800 -Is 36.255 -Id 23.255 -It DSR -Il 32 -If 0 -Ii 3 -Iv 32 -P dsr -Ph 1 -Pq 1 -Ps 1 -Pp 0 -Pn 1 -Pl 0 -Pe 0->0 -Pw 0 -Pm 0 -Pc 0 -Pb 0->0 
r -t 1.004043428 -Hs 29 -Hd -1 -Ni 29 -Nx 636.00 -Ny 245.00 -Nz 0.00 -Ne -1.000000 -Nl RTR -Nw --- -Ma 0 -Md ffffffff -Ms 24 -Mt 800 -Is 36.255 -Id 23.255 -It DSR -Il 32 -If 0 -Ii 3 -Iv 32 -P dsr -Ph 1 -Pq 1 -Ps 1 -Pp 0 -Pn 1 -Pl 0 -Pe 0->0 -Pw 0 -Pm 0 -Pc 0 -Pb 0->0 
r -t 1.004043526 -Hs 20 -Hd -1 -Ni 20 -Nx 586.00 -Ny 295.00 -Nz 0.00 -Ne -1.000000 -Nl RTR -Nw --- -Ma 0 -Md ffffffff -Ms 24 -Mt 800 -Is 36.255 -Id 23.255 -It DSR -Il 32 -If 0 -Ii 3 -Iv 32 -P dsr -Ph 1 -Pq 1 -Ps 1 -Pp 0 -Pn 1 -Pl 0 -Pe 0->0 -Pw 0 -Pm 0 -Pc 0 -Pb 0->0 
r -t 1.004043526 -Hs 34 -Hd -1 -Ni 34 -Nx 486.00 -Ny 195.00 -Nz 0.00 -Ne -1.000000 -Nl RTR -Nw --- -Ma 0 -Md ffffffff -Ms 24 -Mt 800 -Is 36.255 -Id 23.255 -It DSR -Il 32 -If 0 -Ii 3 -Iv 32 -P dsr -Ph 1 -Pq 1 -Ps 1 -Pp 0 -Pn 1 -Pl 0 -Pe 0->0 -Pw 0 -Pm 0 -Pc 0 -Pb 0->0 
r -t 1.004043526 -Hs 38 -Hd -1 -Ni 38 -Nx 686.00 -Ny 195.00 -Nz 0.00 -Ne -1.000000 -Nl RTR -Nw --- -Ma 0 -Md ffffffff -Ms 24 -Mt 800 -Is 36.255 -Id 23.255 -It DSR -Il 32 -If 0 -Ii 3 -Iv 32 -P dsr -Ph 1 -Pq 1 -Ps 1 -Pp 0 -Pn 1 -Pl 0 -Pe 0->0 -Pw 0 -Pm 0 -Pc 0 -Pb 0->0 
r -t 1.004043565 -Hs 19 -Hd -1 -Ni 19 -Nx 536.00 -Ny 295.00 -Nz 0.00 -Ne -1.000000 -Nl RTR -Nw --- -Ma 0 -Md ffffffff -Ms 24 -Mt 800 -Is 36.255 -Id 23.255 -It DSR -Il 32 -If 0 -Ii 3 -Iv 32 -P dsr -Ph 1 -Pq 1 -Ps 1 -Pp 0 -Pn 1 -Pl 0 -Pe 0->0 -Pw 0 -Pm 0 -Pc 0 -Pb 0->0 
r -t 1.004043565 -Hs 26 -Hd -1 -Ni 26 -Nx 486.00 -Ny 245.00 -Nz 0.00 -Ne -1.000000 -Nl RTR -Nw --- -Ma 0 -Md ffffffff -Ms 24 -Mt 800 -Is 36.255 -Id 23.255 -It DSR -Il 32 -If 0 -Ii 3 -Iv 32 -P dsr -Ph 1 -Pq 1 -Ps 1 -Pp 0 -Pn 1 -Pl 0 -Pe 0->0 -Pw 0 -Pm 0 -Pc 0 -Pb 0->0 
r -t 1.004043565 -Hs 21 -Hd -1 -Ni 21 -Nx 636.00 -Ny 295.00 -Nz 0.00 -Ne -1.000000 -Nl RTR -Nw --- -Ma 0 -Md ffffffff -Ms 24 -Mt 800 -Is 36.255 -Id 23.255 -It DSR -Il 32 -If 0 -Ii 3 -Iv 32 -P dsr -Ph 1 -Pq 1 -Ps 1 -Pp 0 -Pn 1 -Pl 0 -Pe 0->0 -Pw 0 -Pm 0 -Pc 0 -Pb 0->0 
r -t 1.004043565 -Hs 30 -Hd -1 -Ni 30 -Nx 686.00 -Ny 245.00 -Nz 0.00 -Ne -1.000000 -Nl RTR -Nw --- -Ma 0 -Md ffffffff -Ms 24 -Mt 800 -Is 36.255 -Id 23.255 -It DSR -Il 32 -If 0 -Ii 3 -Iv 32 -P dsr -Ph 1 -Pq 1 -Ps 1 -Pp 0 -Pn 1 -Pl 0 -Pe 0->0 -Pw 0 -Pm 0 -Pc 0 -Pb 0->0 
r -t 1.004043664 -Hs 18 -Hd -1 -Ni 18 -Nx 486.00 -Ny 295.00 -Nz 0.00 -Ne -1.000000 -Nl RTR -Nw --- -Ma 0 -Md ffffffff -Ms 24 -Mt 800 -Is 36.255 -Id 23.255 -It DSR -Il 32 -If 0 -Ii 3 -Iv 32 -P dsr -Ph 1 -Pq 1 -Ps 1 -Pp 0 -Pn 1 -Pl 0 -Pe 0->0 -Pw 0 -Pm 0 -Pc 0 -Pb 0->0 
r -t 1.004043664 -Hs 22 -Hd -1 -Ni 22 -Nx 686.00 -Ny 295.00 -Nz 0.00 -Ne -1.000000 -Nl RTR -Nw --- -Ma 0 -Md ffffffff -Ms 24 -Mt 800 -Is 36.255 -Id 23.255 -It DSR -Il 32 -If 0 -Ii 3 -Iv 32 -P dsr -Ph 1 -Pq 1 -Ps 1 -Pp 0 -Pn 1 -Pl 0 -Pe 0->0 -Pw 0 -Pm 0 -Pc 0 -Pb 0->0 
r -t 1.004043693 -Hs 12 -Hd -1 -Ni 12 -Nx 586.00 -Ny 345.00 -Nz 0.00 -Ne -1.000000 -Nl RTR -Nw --- -Ma 0 -Md ffffffff -Ms 24 -Mt 800 -Is 36.255 -Id 23.255 -It DSR -Il 32 -If 0 -Ii 3 -Iv 32 -P dsr -Ph 1 -Pq 1 -Ps 1 -Pp 0 -Pn 1 -Pl 0 -Pe 0->0 -Pw 0 -Pm 0 -Pc 0 -Pb 0->0 
r -t 1.004043693 -Hs 33 -Hd -1 -Ni 33 -Nx 436.00 -Ny 195.00 -Nz 0.00 -Ne -1.000000 -Nl RTR -Nw --- -Ma 0 -Md ffffffff -Ms 24 -Mt 800 -Is 36.255 -Id 23.255 -It DSR -Il 32 -If 0 -Ii 3 -Iv 32 -P dsr -Ph 1 -Pq 1 -Ps 1 -Pp 0 -Pn 1 -Pl 0 -Pe 0->0 -Pw 0 -Pm 0 -Pc 0 -Pb 0->0 
r -t 1.004043693 -Hs 39 -Hd -1 -Ni 39 -Nx 736.00 -Ny 195.00 -Nz 0.00 -Ne -1.000000 -Nl RTR -Nw --- -Ma 0 -Md ffffffff -Ms 24 -Mt 800 -Is 36.255 -Id 23.255 -It DSR -Il 32 -If 0 -Ii 3 -Iv 32 -P dsr -Ph 1 -Pq 1 -Ps 1 -Pp 0 -Pn 1 -Pl 0 -Pe 0->0 -Pw 0 -Pm 0 -Pc 0 -Pb 0->0 
r -t 1.004043720 -Hs 11 -Hd -1 -Ni 11 -Nx 536.00 -Ny 345.00 -Nz 0.00 -Ne -1.000000 -Nl RTR -Nw --- -Ma 0 -Md ffffffff -Ms 24 -Mt 800 -Is 36.255 -Id 23.255 -It DSR -Il 32 -If 0 -Ii 3 -Iv 32 -P dsr -Ph 1 -Pq 1 -Ps 1 -Pp 0 -Pn 1 -Pl 0 -Pe 0->0 -Pw 0 -Pm 0 -Pc 0 -Pb 0->0 
r -t 1.004043720 -Hs 25 -Hd -1 -Ni 25 -Nx 436.00 -Ny 245.00 -Nz 0.00 -Ne -1.000000 -Nl RTR -Nw --- -Ma 0 -Md ffffffff -Ms 24 -Mt 800 -Is 36.255 -Id 23.255 -It DSR -Il 32 -If 0 -Ii 3 -Iv 32 -P dsr -Ph 1 -Pq 1 -Ps 1 -Pp 0 -Pn 1 -Pl 0 -Pe 0->0 -Pw 0 -Pm 0 -Pc 0 -Pb 0->0 
r -t 1.004043720 -Hs 13 -Hd -1 -Ni 13 -Nx 636.00 -Ny 345.00 -Nz 0.00 -Ne -1.000000 -Nl RTR -Nw --- -Ma 0 -Md ffffffff -Ms 24 -Mt 800 -Is 36.255 -Id 23.255 -It DSR -Il 32 -If 0 -Ii 3 -Iv 32 -P dsr -Ph 1 -Pq 1 -Ps 1 -Pp 0 -Pn 1 -Pl 0 -Pe 0->0 -Pw 0 -Pm 0 -Pc 0 -Pb 0->0 
r -t 1.004043720 -Hs 31 -Hd -1 -Ni 31 -Nx 736.00 -Ny 245.00 -Nz 0.00 -Ne -1.000000 -Nl RTR -Nw --- -Ma 0 -Md ffffffff -Ms 24 -Mt 800 -Is 36.255 -Id 23.255 -It DSR -Il 32 -If 0 -Ii 3 -Iv 32 -P dsr -Ph 1 -Pq 1 -Ps 1 -Pp 0 -Pn 1 -Pl 0 -Pe 0->0 -Pw 0 -Pm 0 -Pc 0 -Pb 0->0 
r -t 1.004043793 -Hs 10 -Hd -1 -Ni 10 -Nx 486.00 -Ny 345.00 -Nz 0.00 -Ne -1.000000 -Nl RTR -Nw --- -Ma 0 -Md ffffffff -Ms 24 -Mt 800 -Is 36.255 -Id 23.255 -It DSR -Il 32 -If 0 -Ii 3 -Iv 32 -P dsr -Ph 1 -Pq 1 -Ps 1 -Pp 0 -Pn 1 -Pl 0 -Pe 0->0 -Pw 0 -Pm 0 -Pc 0 -Pb 0->0 
r -t 1.004043793 -Hs 17 -Hd -1 -Ni 17 -Nx 436.00 -Ny 295.00 -Nz 0.00 -Ne -1.000000 -Nl RTR -Nw --- -Ma 0 -Md ffffffff -Ms 24 -Mt 800 -Is 36.255 -Id 23.255 -It DSR -Il 32 -If 0 -Ii 3 -Iv 32 -P dsr -Ph 1 -Pq 1 -Ps 1 -Pp 0 -Pn 1 -Pl 0 -Pe 0->0 -Pw 0 -Pm 0 -Pc 0 -Pb 0->0 
r -t 1.004043793 -Hs 14 -Hd -1 -Ni 14 -Nx 686.00 -Ny 345.00 -Nz 0.00 -Ne -1.000000 -Nl RTR -Nw --- -Ma 0 -Md ffffffff -Ms 24 -Mt 800 -Is 36.255 -Id 23.255 -It DSR -Il 32 -If 0 -Ii 3 -Iv 32 -P dsr -Ph 1 -Pq 1 -Ps 1 -Pp 0 -Pn 1 -Pl 0 -Pe 0->0 -Pw 0 -Pm 0 -Pc 0 -Pb 0->0 
r -t 1.004043793 -Hs 23 -Hd -1 -Ni 23 -Nx 736.00 -Ny 295.00 -Nz 0.00 -Ne -1.000000 -Nl RTR -Nw --- -Ma 0 -Md ffffffff -Ms 24 -Mt 800 -Is 36.255 -Id 23.255 -It DSR -Il 32 -If 0 -Ii 3 -Iv 32 -P dsr -Ph 1 -Pq 1 -Ps 1 -Pp 0 -Pn 1 -Pl 0 -Pe 0->0 -Pw 0 -Pm 0 -Pc 0 -Pb 0->0 
r -t 1.004043859 -Hs 4 -Hd -1 -Ni 4 -Nx 586.00 -Ny 395.00 -Nz 0.00 -Ne -1.000000 -Nl RTR -Nw --- -Ma 0 -Md ffffffff -Ms 24 -Mt 800 -Is 36.255 -Id 23.255 -It DSR -Il 32 -If 0 -Ii 3 -Iv 32 -P dsr -Ph 1 -Pq 1 -Ps 1 -Pp 0 -Pn 1 -Pl 0 -Pe 0->0 -Pw 0 -Pm 0 -Pc 0 -Pb 0->0 
r -t 1.004043859 -Hs 32 -Hd -1 -Ni 32 -Nx 386.00 -Ny 195.00 -Nz 0.00 -Ne -1.000000 -Nl RTR -Nw --- -Ma 0 -Md ffffffff -Ms 24 -Mt 800 -Is 36.255 -Id 23.255 -It DSR -Il 32 -If 0 -Ii 3 -Iv 32 -P dsr -Ph 1 -Pq 1 -Ps 1 -Pp 0 -Pn 1 -Pl 0 -Pe 0->0 -Pw 0 -Pm 0 -Pc 0 -Pb 0->0 
r -t 1.004043880 -Hs 3 -Hd -1 -Ni 3 -Nx 536.00 -Ny 395.00 -Nz 0.00 -Ne -1.000000 -Nl RTR -Nw --- -Ma 0 -Md ffffffff -Ms 24 -Mt 800 -Is 36.255 -Id 23.255 -It DSR -Il 32 -If 0 -Ii 3 -Iv 32 -P dsr -Ph 1 -Pq 1 -Ps 1 -Pp 0 -Pn 1 -Pl 0 -Pe 0->0 -Pw 0 -Pm 0 -Pc 0 -Pb 0->0 
r -t 1.004043880 -Hs 24 -Hd -1 -Ni 24 -Nx 386.00 -Ny 245.00 -Nz 0.00 -Ne -1.000000 -Nl RTR -Nw --- -Ma 0 -Md ffffffff -Ms 24 -Mt 800 -Is 36.255 -Id 23.255 -It DSR -Il 32 -If 0 -Ii 3 -Iv 32 -P dsr -Ph 1 -Pq 1 -Ps 1 -Pp 0 -Pn 1 -Pl 0 -Pe 0->0 -Pw 0 -Pm 0 -Pc 0 -Pb 0->0 
r -t 1.004043880 -Hs 5 -Hd -1 -Ni 5 -Nx 636.00 -Ny 395.00 -Nz 0.00 -Ne -1.000000 -Nl RTR -Nw --- -Ma 0 -Md ffffffff -Ms 24 -Mt 800 -Is 36.255 -Id 23.255 -It DSR -Il 32 -If 0 -Ii 3 -Iv 32 -P dsr -Ph 1 -Pq 1 -Ps 1 -Pp 0 -Pn 1 -Pl 0 -Pe 0->0 -Pw 0 -Pm 0 -Pc 0 -Pb 0->0 
r -t 1.004043900 -Hs 9 -Hd -1 -Ni 9 -Nx 436.00 -Ny 345.00 -Nz 0.00 -Ne -1.000000 -Nl RTR -Nw --- -Ma 0 -Md ffffffff -Ms 24 -Mt 800 -Is 36.255 -Id 23.255 -It DSR -Il 32 -If 0 -Ii 3 -Iv 32 -P dsr -Ph 1 -Pq 1 -Ps 1 -Pp 0 -Pn 1 -Pl 0 -Pe 0->0 -Pw 0 -Pm 0 -Pc 0 -Pb 0->0 
r -t 1.004043900 -Hs 15 -Hd -1 -Ni 15 -Nx 736.00 -Ny 345.00 -Nz 0.00 -Ne -1.000000 -Nl RTR -Nw --- -Ma 0 -Md ffffffff -Ms 24 -Mt 800 -Is 36.255 -Id 23.255 -It DSR -Il 32 -If 0 -Ii 3 -Iv 32 -P dsr -Ph 1 -Pq 1 -Ps 1 -Pp 0 -Pn 1 -Pl 0 -Pe 0->0 -Pw 0 -Pm 0 -Pc 0 -Pb 0->0 
r -t 1.004043938 -Hs 2 -Hd -1 -Ni 2 -Nx 486.00 -Ny 395.00 -Nz 0.00 -Ne -1.000000 -Nl RTR -Nw --- -Ma 0 -Md ffffffff -Ms 24 -Mt 800 -Is 36.255 -Id 23.255 -It DSR -Il 32 -If 0 -Ii 3 -Iv 32 -P dsr -Ph 1 -Pq 1 -Ps 1 -Pp 0 -Pn 1 -Pl 0 -Pe 0->0 -Pw 0 -Pm 0 -Pc 0 -Pb 0->0 
r -t 1.004043938 -Hs 16 -Hd -1 -Ni 16 -Nx 386.00 -Ny 295.00 -Nz 0.00 -Ne -1.000000 -Nl RTR -Nw --- -Ma 0 -Md ffffffff -Ms 24 -Mt 800 -Is 36.255 -Id 23.255 -It DSR -Il 32 -If 0 -Ii 3 -Iv 32 -P dsr -Ph 1 -Pq 1 -Ps 1 -Pp 0 -Pn 1 -Pl 0 -Pe 0->0 -Pw 0 -Pm 0 -Pc 0 -Pb 0->0 
r -t 1.004043938 -Hs 6 -Hd -1 -Ni 6 -Nx 686.00 -Ny 395.00 -Nz 0.00 -Ne -1.000000 -Nl RTR -Nw --- -Ma 0 -Md ffffffff -Ms 24 -Mt 800 -Is 36.255 -Id 23.255 -It DSR -Il 32 -If 0 -Ii 3 -Iv 32 -P dsr -Ph 1 -Pq 1 -Ps 1 -Pp 0 -Pn 1 -Pl 0 -Pe 0->0 -Pw 0 -Pm 0 -Pc 0 -Pb 0->0 
r -t 1.004044026 -Hs 1 -Hd -1 -Ni 1 -Nx 436.00 -Ny 395.00 -Nz 0.00 -Ne -1.000000 -Nl RTR -Nw --- -Ma 0 -Md ffffffff -Ms 24 -Mt 800 -Is 36.255 -Id 23.255 -It DSR -Il 32 -If 0 -Ii 3 -Iv 32 -P dsr -Ph 1 -Pq 1 -Ps 1 -Pp 0 -Pn 1 -Pl 0 -Pe 0->0 -Pw 0 -Pm 0 -Pc 0 -Pb 0->0 
r -t 1.004044026 -Hs 8 -Hd -1 -Ni 8 -Nx 386.00 -Ny 345.00 -Nz 0.00 -Ne -1.000000 -Nl RTR -Nw --- -Ma 0 -Md ffffffff -Ms 24 -Mt 800 -Is 36.255 -Id 23.255 -It DSR -Il 32 -If 0 -Ii 3 -Iv 32 -P dsr -Ph 1 -Pq 1 -Ps 1 -Pp 0 -Pn 1 -Pl 0 -Pe 0->0 -Pw 0 -Pm 0 -Pc 0 -Pb 0->0 
r -t 1.004044026 -Hs 7 -Hd -1 -Ni 7 -Nx 736.00 -Ny 395.00 -Nz 0.00 -Ne -1.000000 -Nl RTR -Nw --- -Ma 0 -Md ffffffff -Ms 24 -Mt 800 -Is 36.255 -Id 23.255 -It DSR -Il 32 -If 0 -Ii 3 -Iv 32 -P dsr -Ph 1 -Pq 1 -Ps 1 -Pp 0 -Pn 1 -Pl 0 -Pe 0->0 -Pw 0 -Pm 0 -Pc 0 -Pb 0->0 
s -t 1.009032720 -Hs 3 -Hd -1 -Ni 3 -Nx 536.00 -Ny 395.00 -Nz 0.00 -Ne -1.000000 -Nl RTR -Nw --- -Ma 0 -Md 0 -Ms 0 -Mt 0 -Is 3.255 -Id 16.255 -It DSR -Il 32 -If 0 -Ii 1 -Iv 32 -P dsr -Ph 1 -Pq 1 -Ps 1 -Pp 0 -Pn 1 -Pl 0 -Pe 0->0 -Pw 0 -Pm 0 -Pc 0 -Pb 0->0 
s -t 1.009267720 -Hs 3 -Hd -1 -Ni 3 -Nx 536.00 -Ny 395.00 -Nz 0.00 -Ne -1.000000 -Nl MAC -Nw --- -Ma 0 -Md ffffffff -Ms 3 -Mt 800 -Is 3.255 -Id 16.255 -It DSR -Il 90 -If 0 -Ii 1 -Iv 32 -P dsr -Ph 1 -Pq 1 -Ps 1 -Pp 0 -Pn 1 -Pl 0 -Pe 0->0 -Pw 0 -Pm 0 -Pc 0 -Pb 0->0 
r -t 1.009987886 -Hs 2 -Hd -1 -Ni 2 -Nx 486.00 -Ny 395.00 -Nz 0.00 -Ne -1.000000 -Nl MAC -Nw --- -Ma 0 -Md ffffffff -Ms 3 -Mt 800 -Is 3.255 -Id 16.255 -It DSR -Il 32 -If 0 -Ii 1 -Iv 32 -P dsr -Ph 1 -Pq 1 -Ps 1 -Pp 0 -Pn 1 -Pl 0 -Pe 0->0 -Pw 0 -Pm 0 -Pc 0 -Pb 0->0 
r -t 1.009987886 -Hs 11 -Hd -1 -Ni 11 -Nx 536.00 -Ny 345.00 -Nz 0.00 -Ne -1.000000 -Nl MAC -Nw --- -Ma 0 -Md ffffffff -Ms 3 -Mt 800 -Is 3.255 -Id 16.255 -It DSR -Il 32 -If 0 -Ii 1 -Iv 32 -P dsr -Ph 1 -Pq 1 -Ps 1 -Pp 0 -Pn 1 -Pl 0 -Pe 0->0 -Pw 0 -Pm 0 -Pc 0 -Pb 0->0 
r -t 1.009987886 -Hs 4 -Hd -1 -Ni 4 -Nx 586.00 -Ny 395.00 -Nz 0.00 -Ne -1.000000 -Nl MAC -Nw --- -Ma 0 -Md ffffffff -Ms 3 -Mt 800 -Is 3.255 -Id 16.255 -It DSR -Il 32 -If 0 -Ii 1 -Iv 32 -P dsr -Ph 1 -Pq 1 -Ps 1 -Pp 0 -Pn 1 -Pl 0 -Pe 0->0 -Pw 0 -Pm 0 -Pc 0 -Pb 0->0 
r -t 1.009987955 -Hs 10 -Hd -1 -Ni 10 -Nx 486.00 -Ny 345.00 -Nz 0.00 -Ne -1.000000 -Nl MAC -Nw --- -Ma 0 -Md ffffffff -Ms 3 -Mt 800 -Is 3.255 -Id 16.255 -It DSR -Il 32 -If 0 -Ii 1 -Iv 32 -P dsr -Ph 1 -Pq 1 -Ps 1 -Pp 0 -Pn 1 -Pl 0 -Pe 0->0 -Pw 0 -Pm 0 -Pc 0 -Pb 0->0 
r -t 1.009987955 -Hs 12 -Hd -1 -Ni 12 -Nx 586.00 -Ny 345.00 -Nz 0.00 -Ne -1.000000 -Nl MAC -Nw --- -Ma 0 -Md ffffffff -Ms 3 -Mt 800 -Is 3.255 -Id 16.255 -It DSR -Il 32 -If 0 -Ii 1 -Iv 32 -P dsr -Ph 1 -Pq 1 -Ps 1 -Pp 0 -Pn 1 -Pl 0 -Pe 0->0 -Pw 0 -Pm 0 -Pc 0 -Pb 0->0 
r -t 1.009988053 -Hs 1 -Hd -1 -Ni 1 -Nx 436.00 -Ny 395.00 -Nz 0.00 -Ne -1.000000 -Nl MAC -Nw --- -Ma 0 -Md ffffffff -Ms 3 -Mt 800 -Is 3.255 -Id 16.255 -It DSR -Il 32 -If 0 -Ii 1 -Iv 32 -P dsr -Ph 1 -Pq 1 -Ps 1 -Pp 0 -Pn 1 -Pl 0 -Pe 0->0 -Pw 0 -Pm 0 -Pc 0 -Pb 0->0 
r -t 1.009988053 -Hs 19 -Hd -1 -Ni 19 -Nx 536.00 -Ny 295.00 -Nz 0.00 -Ne -1.000000 -Nl MAC -Nw --- -Ma 0 -Md ffffffff -Ms 3 -Mt 800 -Is 3.255 -Id 16.255 -It DSR -Il 32 -If 0 -Ii 1 -Iv 32 -P dsr -Ph 1 -Pq 1 -Ps 1 -Pp 0 -Pn 1 -Pl 0 -Pe 0->0 -Pw 0 -Pm 0 -Pc 0 -Pb 0->0 
r -t 1.009988053 -Hs 5 -Hd -1 -Ni 5 -Nx 636.00 -Ny 395.00 -Nz 0.00 -Ne -1.000000 -Nl MAC -Nw --- -Ma 0 -Md ffffffff -Ms 3 -Mt 800 -Is 3.255 -Id 16.255 -It DSR -Il 32 -If 0 -Ii 1 -Iv 32 -P dsr -Ph 1 -Pq 1 -Ps 1 -Pp 0 -Pn 1 -Pl 0 -Pe 0->0 -Pw 0 -Pm 0 -Pc 0 -Pb 0->0 
r -t 1.009988092 -Hs 18 -Hd -1 -Ni 18 -Nx 486.00 -Ny 295.00 -Nz 0.00 -Ne -1.000000 -Nl MAC -Nw --- -Ma 0 -Md ffffffff -Ms 3 -Mt 800 -Is 3.255 -Id 16.255 -It DSR -Il 32 -If 0 -Ii 1 -Iv 32 -P dsr -Ph 1 -Pq 1 -Ps 1 -Pp 0 -Pn 1 -Pl 0 -Pe 0->0 -Pw 0 -Pm 0 -Pc 0 -Pb 0->0 
r -t 1.009988092 -Hs 9 -Hd -1 -Ni 9 -Nx 436.00 -Ny 345.00 -Nz 0.00 -Ne -1.000000 -Nl MAC -Nw --- -Ma 0 -Md ffffffff -Ms 3 -Mt 800 -Is 3.255 -Id 16.255 -It DSR -Il 32 -If 0 -Ii 1 -Iv 32 -P dsr -Ph 1 -Pq 1 -Ps 1 -Pp 0 -Pn 1 -Pl 0 -Pe 0->0 -Pw 0 -Pm 0 -Pc 0 -Pb 0->0 
r -t 1.009988092 -Hs 20 -Hd -1 -Ni 20 -Nx 586.00 -Ny 295.00 -Nz 0.00 -Ne -1.000000 -Nl MAC -Nw --- -Ma 0 -Md ffffffff -Ms 3 -Mt 800 -Is 3.255 -Id 16.255 -It DSR -Il 32 -If 0 -Ii 1 -Iv 32 -P dsr -Ph 1 -Pq 1 -Ps 1 -Pp 0 -Pn 1 -Pl 0 -Pe 0->0 -Pw 0 -Pm 0 -Pc 0 -Pb 0->0 
r -t 1.009988092 -Hs 13 -Hd -1 -Ni 13 -Nx 636.00 -Ny 345.00 -Nz 0.00 -Ne -1.000000 -Nl MAC -Nw --- -Ma 0 -Md ffffffff -Ms 3 -Mt 800 -Is 3.255 -Id 16.255 -It DSR -Il 32 -If 0 -Ii 1 -Iv 32 -P dsr -Ph 1 -Pq 1 -Ps 1 -Pp 0 -Pn 1 -Pl 0 -Pe 0->0 -Pw 0 -Pm 0 -Pc 0 -Pb 0->0 
r -t 1.009988191 -Hs 17 -Hd -1 -Ni 17 -Nx 436.00 -Ny 295.00 -Nz 0.00 -Ne -1.000000 -Nl MAC -Nw --- -Ma 0 -Md ffffffff -Ms 3 -Mt 800 -Is 3.255 -Id 16.255 -It DSR -Il 32 -If 0 -Ii 1 -Iv 32 -P dsr -Ph 1 -Pq 1 -Ps 1 -Pp 0 -Pn 1 -Pl 0 -Pe 0->0 -Pw 0 -Pm 0 -Pc 0 -Pb 0->0 
r -t 1.009988191 -Hs 21 -Hd -1 -Ni 21 -Nx 636.00 -Ny 295.00 -Nz 0.00 -Ne -1.000000 -Nl MAC -Nw --- -Ma 0 -Md ffffffff -Ms 3 -Mt 800 -Is 3.255 -Id 16.255 -It DSR -Il 32 -If 0 -Ii 1 -Iv 32 -P dsr -Ph 1 -Pq 1 -Ps 1 -Pp 0 -Pn 1 -Pl 0 -Pe 0->0 -Pw 0 -Pm 0 -Pc 0 -Pb 0->0 
r -t 1.009988220 -Hs 0 -Hd -1 -Ni 0 -Nx 386.00 -Ny 395.00 -Nz 0.00 -Ne -1.000000 -Nl MAC -Nw --- -Ma 0 -Md ffffffff -Ms 3 -Mt 800 -Is 3.255 -Id 16.255 -It DSR -Il 32 -If 0 -Ii 1 -Iv 32 -P dsr -Ph 1 -Pq 1 -Ps 1 -Pp 0 -Pn 1 -Pl 0 -Pe 0->0 -Pw 0 -Pm 0 -Pc 0 -Pb 0->0 
r -t 1.009988220 -Hs 27 -Hd -1 -Ni 27 -Nx 536.00 -Ny 245.00 -Nz 0.00 -Ne -1.000000 -Nl MAC -Nw --- -Ma 0 -Md ffffffff -Ms 3 -Mt 800 -Is 3.255 -Id 16.255 -It DSR -Il 32 -If 0 -Ii 1 -Iv 32 -P dsr -Ph 1 -Pq 1 -Ps 1 -Pp 0 -Pn 1 -Pl 0 -Pe 0->0 -Pw 0 -Pm 0 -Pc 0 -Pb 0->0 
r -t 1.009988220 -Hs 6 -Hd -1 -Ni 6 -Nx 686.00 -Ny 395.00 -Nz 0.00 -Ne -1.000000 -Nl MAC -Nw --- -Ma 0 -Md ffffffff -Ms 3 -Mt 800 -Is 3.255 -Id 16.255 -It DSR -Il 32 -If 0 -Ii 1 -Iv 32 -P dsr -Ph 1 -Pq 1 -Ps 1 -Pp 0 -Pn 1 -Pl 0 -Pe 0->0 -Pw 0 -Pm 0 -Pc 0 -Pb 0->0 
r -t 1.009988247 -Hs 26 -Hd -1 -Ni 26 -Nx 486.00 -Ny 245.00 -Nz 0.00 -Ne -1.000000 -Nl MAC -Nw --- -Ma 0 -Md ffffffff -Ms 3 -Mt 800 -Is 3.255 -Id 16.255 -It DSR -Il 32 -If 0 -Ii 1 -Iv 32 -P dsr -Ph 1 -Pq 1 -Ps 1 -Pp 0 -Pn 1 -Pl 0 -Pe 0->0 -Pw 0 -Pm 0 -Pc 0 -Pb 0->0 
r -t 1.009988247 -Hs 8 -Hd -1 -Ni 8 -Nx 386.00 -Ny 345.00 -Nz 0.00 -Ne -1.000000 -Nl MAC -Nw --- -Ma 0 -Md ffffffff -Ms 3 -Mt 800 -Is 3.255 -Id 16.255 -It DSR -Il 32 -If 0 -Ii 1 -Iv 32 -P dsr -Ph 1 -Pq 1 -Ps 1 -Pp 0 -Pn 1 -Pl 0 -Pe 0->0 -Pw 0 -Pm 0 -Pc 0 -Pb 0->0 
r -t 1.009988247 -Hs 28 -Hd -1 -Ni 28 -Nx 586.00 -Ny 245.00 -Nz 0.00 -Ne -1.000000 -Nl MAC -Nw --- -Ma 0 -Md ffffffff -Ms 3 -Mt 800 -Is 3.255 -Id 16.255 -It DSR -Il 32 -If 0 -Ii 1 -Iv 32 -P dsr -Ph 1 -Pq 1 -Ps 1 -Pp 0 -Pn 1 -Pl 0 -Pe 0->0 -Pw 0 -Pm 0 -Pc 0 -Pb 0->0 
r -t 1.009988247 -Hs 14 -Hd -1 -Ni 14 -Nx 686.00 -Ny 345.00 -Nz 0.00 -Ne -1.000000 -Nl MAC -Nw --- -Ma 0 -Md ffffffff -Ms 3 -Mt 800 -Is 3.255 -Id 16.255 -It DSR -Il 32 -If 0 -Ii 1 -Iv 32 -P dsr -Ph 1 -Pq 1 -Ps 1 -Pp 0 -Pn 1 -Pl 0 -Pe 0->0 -Pw 0 -Pm 0 -Pc 0 -Pb 0->0 
r -t 1.009988321 -Hs 25 -Hd -1 -Ni 25 -Nx 436.00 -Ny 245.00 -Nz 0.00 -Ne -1.000000 -Nl MAC -Nw --- -Ma 0 -Md ffffffff -Ms 3 -Mt 800 -Is 3.255 -Id 16.255 -It DSR -Il 32 -If 0 -Ii 1 -Iv 32 -P dsr -Ph 1 -Pq 1 -Ps 1 -Pp 0 -Pn 1 -Pl 0 -Pe 0->0 -Pw 0 -Pm 0 -Pc 0 -Pb 0->0 
r -t 1.009988321 -Hs 16 -Hd -1 -Ni 16 -Nx 386.00 -Ny 295.00 -Nz 0.00 -Ne -1.000000 -Nl MAC -Nw --- -Ma 0 -Md ffffffff -Ms 3 -Mt 800 -Is 3.255 -Id 16.255 -It DSR -Il 32 -If 0 -Ii 1 -Iv 32 -P dsr -Ph 1 -Pq 1 -Ps 1 -Pp 0 -Pn 1 -Pl 0 -Pe 0->0 -Pw 0 -Pm 0 -Pc 0 -Pb 0->0 
r -t 1.009988321 -Hs 29 -Hd -1 -Ni 29 -Nx 636.00 -Ny 245.00 -Nz 0.00 -Ne -1.000000 -Nl MAC -Nw --- -Ma 0 -Md ffffffff -Ms 3 -Mt 800 -Is 3.255 -Id 16.255 -It DSR -Il 32 -If 0 -Ii 1 -Iv 32 -P dsr -Ph 1 -Pq 1 -Ps 1 -Pp 0 -Pn 1 -Pl 0 -Pe 0->0 -Pw 0 -Pm 0 -Pc 0 -Pb 0->0 
r -t 1.009988321 -Hs 22 -Hd -1 -Ni 22 -Nx 686.00 -Ny 295.00 -Nz 0.00 -Ne -1.000000 -Nl MAC -Nw --- -Ma 0 -Md ffffffff -Ms 3 -Mt 800 -Is 3.255 -Id 16.255 -It DSR -Il 32 -If 0 -Ii 1 -Iv 32 -P dsr -Ph 1 -Pq 1 -Ps 1 -Pp 0 -Pn 1 -Pl 0 -Pe 0->0 -Pw 0 -Pm 0 -Pc 0 -Pb 0->0 
r -t 1.009988386 -Hs 35 -Hd -1 -Ni 35 -Nx 536.00 -Ny 195.00 -Nz 0.00 -Ne -1.000000 -Nl MAC -Nw --- -Ma 0 -Md ffffffff -Ms 3 -Mt 800 -Is 3.255 -Id 16.255 -It DSR -Il 32 -If 0 -Ii 1 -Iv 32 -P dsr -Ph 1 -Pq 1 -Ps 1 -Pp 0 -Pn 1 -Pl 0 -Pe 0->0 -Pw 0 -Pm 0 -Pc 0 -Pb 0->0 
r -t 1.009988386 -Hs 7 -Hd -1 -Ni 7 -Nx 736.00 -Ny 395.00 -Nz 0.00 -Ne -1.000000 -Nl MAC -Nw --- -Ma 0 -Md ffffffff -Ms 3 -Mt 800 -Is 3.255 -Id 16.255 -It DSR -Il 32 -If 0 -Ii 1 -Iv 32 -P dsr -Ph 1 -Pq 1 -Ps 1 -Pp 0 -Pn 1 -Pl 0 -Pe 0->0 -Pw 0 -Pm 0 -Pc 0 -Pb 0->0 
r -t 1.009988407 -Hs 34 -Hd -1 -Ni 34 -Nx 486.00 -Ny 195.00 -Nz 0.00 -Ne -1.000000 -Nl MAC -Nw --- -Ma 0 -Md ffffffff -Ms 3 -Mt 800 -Is 3.255 -Id 16.255 -It DSR -Il 32 -If 0 -Ii 1 -Iv 32 -P dsr -Ph 1 -Pq 1 -Ps 1 -Pp 0 -Pn 1 -Pl 0 -Pe 0->0 -Pw 0 -Pm 0 -Pc 0 -Pb 0->0 