s -t 0.035182811 -Hs 0 -Hd -1 -Ni 0 -Nx 392.00 -Ny 421.00 -Nz 0.00 -Ne -1.000000 -Nl RTR -Nw --- -Ma 0 -Md 0 -Ms 0 -Mt 0 -Is 0.255 -Id -1.255 -It message -Il 32 -If 0 -Ii 0 -Iv 32 
s -t 0.035397811 -Hs 0 -Hd -1 -Ni 0 -Nx 392.00 -Ny 421.00 -Nz 0.00 -Ne -1.000000 -Nl MAC -Nw --- -Ma 0 -Md ffffffff -Ms 0 -Mt 800 -Is 0.255 -Id -1.255 -It message -Il 90 -If 0 -Ii 0 -Iv 32 
r -t 0.036117977 -Hs 6 -Hd -1 -Ni 6 -Nx 392.00 -Ny 371.00 -Nz 0.00 -Ne -1.000000 -Nl MAC -Nw --- -Ma 0 -Md ffffffff -Ms 0 -Mt 800 -Is 0.255 -Id -1.255 -It message -Il 32 -If 0 -Ii 0 -Iv 32 
r -t 0.036117977 -Hs 1 -Hd -1 -Ni 1 -Nx 442.00 -Ny 421.00 -Nz 0.00 -Ne -1.000000 -Nl MAC -Nw --- -Ma 0 -Md ffffffff -Ms 0 -Mt 800 -Is 0.255 -Id -1.255 -It message -Il 32 -If 0 -Ii 0 -Iv 32 
r -t 0.036118046 -Hs 7 -Hd -1 -Ni 7 -Nx 442.00 -Ny 371.00 -Nz 0.00 -Ne -1.000000 -Nl MAC -Nw --- -Ma 0 -Md ffffffff -Ms 0 -Mt 800 -Is 0.255 -Id -1.255 -It message -Il 32 -If 0 -Ii 0 -Iv 32 
r -t 0.036118144 -Hs 12 -Hd -1 -Ni 12 -Nx 392.00 -Ny 321.00 -Nz 0.00 -Ne -1.000000 -Nl MAC -Nw --- -Ma 0 -Md ffffffff -Ms 0 -Mt 800 -Is 0.255 -Id -1.255 -It message -Il 32 -If 0 -Ii 0 -Iv 32 
r -t 0.036118144 -Hs 2 -Hd -1 -Ni 2 -Nx 492.00 -Ny 421.00 -Nz 0.00 -Ne -1.000000 -Nl MAC -Nw --- -Ma 0 -Md ffffffff -Ms 0 -Mt 800 -Is 0.255 -Id -1.255 -It message -Il 32 -If 0 -Ii 0 -Iv 32 
r -t 0.036118183 -Hs 13 -Hd -1 -Ni 13 -Nx 442.00 -Ny 321.00 -Nz 0.00 -Ne -1.000000 -Nl MAC -Nw --- -Ma 0 -Md ffffffff -Ms 0 -Mt 800 -Is 0.255 -Id -1.255 -It message -Il 32 -If 0 -Ii 0 -Iv 32 
r -t 0.036118183 -Hs 8 -Hd -1 -Ni 8 -Nx 492.00 -Ny 371.00 -Nz 0.00 -Ne -1.000000 -Nl MAC -Nw --- -Ma 0 -Md ffffffff -Ms 0 -Mt 800 -Is 0.255 -Id -1.255 -It message -Il 32 -If 0 -Ii 0 -Iv 32 
r -t 0.036118282 -Hs 14 -Hd -1 -Ni 14 -Nx 492.00 -Ny 321.00 -Nz 0.00 -Ne -1.000000 -Nl MAC -Nw --- -Ma 0 -Md ffffffff -Ms 0 -Mt 800 -Is 0.255 -Id -1.255 -It message -Il 32 -If 0 -Ii 0 -Iv 32 
r -t 0.036118311 -Hs 18 -Hd -1 -Ni 18 -Nx 392.00 -Ny 271.00 -Nz 0.00 -Ne -1.000000 -Nl MAC -Nw --- -Ma 0 -Md ffffffff -Ms 0 -Mt 800 -Is 0.255 -Id -1.255 -It message -Il 32 -If 0 -Ii 0 -Iv 32 
r -t 0.036118311 -Hs 3 -Hd -1 -Ni 3 -Nx 542.00 -Ny 421.00 -Nz 0.00 -Ne -1.000000 -Nl MAC -Nw --- -Ma 0 -Md ffffffff -Ms 0 -Mt 800 -Is 0.255 -Id -1.255 -It message -Il 32 -If 0 -Ii 0 -Iv 32 
r -t 0.036118338 -Hs 19 -Hd -1 -Ni 19 -Nx 442.00 -Ny 271.00 -Nz 0.00 -Ne -1.000000 -Nl MAC -Nw --- -Ma 0 -Md ffffffff -Ms 0 -Mt 800 -Is 0.255 -Id -1.255 -It message -Il 32 -If 0 -Ii 0 -Iv 32 
r -t 0.036118338 -Hs 9 -Hd -1 -Ni 9 -Nx 542.00 -Ny 371.00 -Nz 0.00 -Ne -1.000000 -Nl MAC -Nw --- -Ma 0 -Md ffffffff -Ms 0 -Mt 800 -Is 0.255 -Id -1.255 -It message -Il 32 -If 0 -Ii 0 -Iv 32 
r -t 0.036118412 -Hs 20 -Hd -1 -Ni 20 -Nx 492.00 -Ny 271.00 -Nz 0.00 -Ne -1.000000 -Nl MAC -Nw --- -Ma 0 -Md ffffffff -Ms 0 -Mt 800 -Is 0.255 -Id -1.255 -It message -Il 32 -If 0 -Ii 0 -Iv 32 
r -t 0.036118412 -Hs 15 -Hd -1 -Ni 15 -Nx 542.00 -Ny 321.00 -Nz 0.00 -Ne -1.000000 -Nl MAC -Nw --- -Ma 0 -Md ffffffff -Ms 0 -Mt 800 -Is 0.255 -Id -1.255 -It message -Il 32 -If 0 -Ii 0 -Iv 32 
r -t 0.036118477 -Hs 24 -Hd -1 -Ni 24 -Nx 392.00 -Ny 221.00 -Nz 0.00 -Ne -1.000000 -Nl MAC -Nw --- -Ma 0 -Md ffffffff -Ms 0 -Mt 800 -Is 0.255 -Id -1.255 -It message -Il 32 -If 0 -Ii 0 -Iv 32 
r -t 0.036118477 -Hs 4 -Hd -1 -Ni 4 -Nx 592.00 -Ny 421.00 -Nz 0.00 -Ne -1.000000 -Nl MAC -Nw --- -Ma 0 -Md ffffffff -Ms 0 -Mt 800 -Is 0.255 -Id -1.255 -It message -Il 32 -If 0 -Ii 0 -Iv 32 
r -t 0.036118498 -Hs 25 -Hd -1 -Ni 25 -Nx 442.00 -Ny 221.00 -Nz 0.00 -Ne -1.000000 -Nl MAC -Nw --- -Ma 0 -Md ffffffff -Ms 0 -Mt 800 -Is 0.255 -Id -1.255 -It message -Il 32 -If 0 -Ii 0 -Iv 32 
r -t 0.036118498 -Hs 10 -Hd -1 -Ni 10 -Nx 592.00 -Ny 371.00 -Nz 0.00 -Ne -1.000000 -Nl MAC -Nw --- -Ma 0 -Md ffffffff -Ms 0 -Mt 800 -Is 0.255 -Id -1.255 -It message -Il 32 -If 0 -Ii 0 -Iv 32 
r -t 0.036118518 -Hs 21 -Hd -1 -Ni 21 -Nx 542.00 -Ny 271.00 -Nz 0.00 -Ne -1.000000 -Nl MAC -Nw --- -Ma 0 -Md ffffffff -Ms 0 -Mt 800 -Is 0.255 -Id -1.255 -It message -Il 32 -If 0 -Ii 0 -Iv 32 
r -t 0.036118556 -Hs 26 -Hd -1 -Ni 26 -Nx 492.00 -Ny 221.00 -Nz 0.00 -Ne -1.000000 -Nl MAC -Nw --- -Ma 0 -Md ffffffff -Ms 0 -Mt 800 -Is 0.255 -Id -1.255 -It message -Il 32 -If 0 -Ii 0 -Iv 32 
r -t 0.036118556 -Hs 16 -Hd -1 -Ni 16 -Nx 592.00 -Ny 321.00 -Nz 0.00 -Ne -1.000000 -Nl MAC -Nw --- -Ma 0 -Md ffffffff -Ms 0 -Mt 800 -Is 0.255 -Id -1.255 -It message -Il 32 -If 0 -Ii 0 -Iv 32 
r -t 0.036118644 -Hs 27 -Hd -1 -Ni 27 -Nx 542.00 -Ny 221.00 -Nz 0.00 -Ne -1.000000 -Nl MAC -Nw --- -Ma 0 -Md ffffffff -Ms 0 -Mt 800 -Is 0.255 -Id -1.255 -It message -Il 32 -If 0 -Ii 0 -Iv 32 
r -t 0.036118644 -Hs 22 -Hd -1 -Ni 22 -Nx 592.00 -Ny 271.00 -Nz 0.00 -Ne -1.000000 -Nl MAC -Nw --- -Ma 0 -Md ffffffff -Ms 0 -Mt 800 -Is 0.255 -Id -1.255 -It message -Il 32 -If 0 -Ii 0 -Iv 32 
r -t 0.036118644 -Hs 5 -Hd -1 -Ni 5 -Nx 642.00 -Ny 421.00 -Nz 0.00 -Ne -1.000000 -Nl MAC -Nw --- -Ma 0 -Md ffffffff -Ms 0 -Mt 800 -Is 0.255 -Id -1.255 -It message -Il 32 -If 0 -Ii 0 -Iv 32 
r -t 0.036142977 -Hs 6 -Hd -1 -Ni 6 -Nx 392.00 -Ny 371.00 -Nz 0.00 -Ne -1.000000 -Nl RTR -Nw --- -Ma 0 -Md ffffffff -Ms 0 -Mt 800 -Is 0.255 -Id -1.255 -It message -Il 32 -If 0 -Ii 0 -Iv 32 
r -t 0.036142977 -Hs 1 -Hd -1 -Ni 1 -Nx 442.00 -Ny 421.00 -Nz 0.00 -Ne -1.000000 -Nl RTR -Nw --- -Ma 0 -Md ffffffff -Ms 0 -Mt 800 -Is 0.255 -Id -1.255 -It message -Il 32 -If 0 -Ii 0 -Iv 32 
r -t 0.036143046 -Hs 7 -Hd -1 -Ni 7 -Nx 442.00 -Ny 371.00 -Nz 0.00 -Ne -1.000000 -Nl RTR -Nw --- -Ma 0 -Md ffffffff -Ms 0 -Mt 800 -Is 0.255 -Id -1.255 -It message -Il 32 -If 0 -Ii 0 -Iv 32 
r -t 0.036143144 -Hs 12 -Hd -1 -Ni 12 -Nx 392.00 -Ny 321.00 -Nz 0.00 -Ne -1.000000 -Nl RTR -Nw --- -Ma 0 -Md ffffffff -Ms 0 -Mt 800 -Is 0.255 -Id -1.255 -It message -Il 32 -If 0 -Ii 0 -Iv 32 
r -t 0.036143144 -Hs 2 -Hd -1 -Ni 2 -Nx 492.00 -Ny 421.00 -Nz 0.00 -Ne -1.000000 -Nl RTR -Nw --- -Ma 0 -Md ffffffff -Ms 0 -Mt 800 -Is 0.255 -Id -1.255 -It message -Il 32 -If 0 -Ii 0 -Iv 32 
r -t 0.036143183 -Hs 13 -Hd -1 -Ni 13 -Nx 442.00 -Ny 321.00 -Nz 0.00 -Ne -1.000000 -Nl RTR -Nw --- -Ma 0 -Md ffffffff -Ms 0 -Mt 800 -Is 0.255 -Id -1.255 -It message -Il 32 -If 0 -Ii 0 -Iv 32 
r -t 0.036143183 -Hs 8 -Hd -1 -Ni 8 -Nx 492.00 -Ny 371.00 -Nz 0.00 -Ne -1.000000 -Nl RTR -Nw --- -Ma 0 -Md ffffffff -Ms 0 -Mt 800 -Is 0.255 -Id -1.255 -It message -Il 32 -If 0 -Ii 0 -Iv 32 
r -t 0.036143282 -Hs 14 -Hd -1 -Ni 14 -Nx 492.00 -Ny 321.00 -Nz 0.00 -Ne -1.000000 -Nl RTR -Nw --- -Ma 0 -Md ffffffff -Ms 0 -Mt 800 -Is 0.255 -Id -1.255 -It message -Il 32 -If 0 -Ii 0 -Iv 32 
r -t 0.036143311 -Hs 18 -Hd -1 -Ni 18 -Nx 392.00 -Ny 271.00 -Nz 0.00 -Ne -1.000000 -Nl RTR -Nw --- -Ma 0 -Md ffffffff -Ms 0 -Mt 800 -Is 0.255 -Id -1.255 -It message -Il 32 -If 0 -Ii 0 -Iv 32 
r -t 0.036143311 -Hs 3 -Hd -1 -Ni 3 -Nx 542.00 -Ny 421.00 -Nz 0.00 -Ne -1.000000 -Nl RTR -Nw --- -Ma 0 -Md ffffffff -Ms 0 -Mt 800 -Is 0.255 -Id -1.255 -It message -Il 32 -If 0 -Ii 0 -Iv 32 
r -t 0.036143338 -Hs 19 -Hd -1 -Ni 19 -Nx 442.00 -Ny 271.00 -Nz 0.00 -Ne -1.000000 -Nl RTR -Nw --- -Ma 0 -Md ffffffff -Ms 0 -Mt 800 -Is 0.255 -Id -1.255 -It message -Il 32 -If 0 -Ii 0 -Iv 32 
r -t 0.036143338 -Hs 9 -Hd -1 -Ni 9 -Nx 542.00 -Ny 371.00 -Nz 0.00 -Ne -1.000000 -Nl RTR -Nw --- -Ma 0 -Md ffffffff -Ms 0 -Mt 800 -Is 0.255 -Id -1.255 -It message -Il 32 -If 0 -Ii 0 -Iv 32 
r -t 0.036143412 -Hs 20 -Hd -1 -Ni 20 -Nx 492.00 -Ny 271.00 -Nz 0.00 -Ne -1.000000 -Nl RTR -Nw --- -Ma 0 -Md ffffffff -Ms 0 -Mt 800 -Is 0.255 -Id -1.255 -It message -Il 32 -If 0 -Ii 0 -Iv 32 
r -t 0.036143412 -Hs 15 -Hd -1 -Ni 15 -Nx 542.00 -Ny 321.00 -Nz 0.00 -Ne -1.000000 -Nl RTR -Nw --- -Ma 0 -Md ffffffff -Ms 0 -Mt 800 -Is 0.255 -Id -1.255 -It message -Il 32 -If 0 -Ii 0 -Iv 32 
r -t 0.036143477 -Hs 24 -Hd -1 -Ni 24 -Nx 392.00 -Ny 221.00 -Nz 0.00 -Ne -1.000000 -Nl RTR -Nw --- -Ma 0 -Md ffffffff -Ms 0 -Mt 800 -Is 0.255 -Id -1.255 -It message -Il 32 -If 0 -Ii 0 -Iv 32 
r -t 0.036143477 -Hs 4 -Hd -1 -Ni 4 -Nx 592.00 -Ny 421.00 -Nz 0.00 -Ne -1.000000 -Nl RTR -Nw --- -Ma 0 -Md ffffffff -Ms 0 -Mt 800 -Is 0.255 -Id -1.255 -It message -Il 32 -If 0 -Ii 0 -Iv 32 
r -t 0.036143498 -Hs 25 -Hd -1 -Ni 25 -Nx 442.00 -Ny 221.00 -Nz 0.00 -Ne -1.000000 -Nl RTR -Nw --- -Ma 0 -Md ffffffff -Ms 0 -Mt 800 -Is 0.255 -Id -1.255 -It message -Il 32 -If 0 -Ii 0 -Iv 32 
r -t 0.036143498 -Hs 10 -Hd -1 -Ni 10 -Nx 592.00 -Ny 371.00 -Nz 0.00 -Ne -1.000000 -Nl RTR -Nw --- -Ma 0 -Md ffffffff -Ms 0 -Mt 800 -Is 0.255 -Id -1.255 -It message -Il 32 -If 0 -Ii 0 -Iv 32 
r -t 0.036143518 -Hs 21 -Hd -1 -Ni 21 -Nx 542.00 -Ny 271.00 -Nz 0.00 -Ne -1.000000 -Nl RTR -Nw --- -Ma 0 -Md ffffffff -Ms 0 -Mt 800 -Is 0.255 -Id -1.255 -It message -Il 32 -If 0 -Ii 0 -Iv 32 
r -t 0.036143556 -Hs 26 -Hd -1 -Ni 26 -Nx 492.00 -Ny 221.00 -Nz 0.00 -Ne -1.000000 -Nl RTR -Nw --- -Ma 0 -Md ffffffff -Ms 0 -Mt 800 -Is 0.255 -Id -1.255 -It message -Il 32 -If 0 -Ii 0 -Iv 32 
r -t 0.036143556 -Hs 16 -Hd -1 -Ni 16 -Nx 592.00 -Ny 321.00 -Nz 0.00 -Ne -1.000000 -Nl RTR -Nw --- -Ma 0 -Md ffffffff -Ms 0 -Mt 800 -Is 0.255 -Id -1.255 -It message -Il 32 -If 0 -Ii 0 -Iv 32 
r -t 0.036143644 -Hs 27 -Hd -1 -Ni 27 -Nx 542.00 -Ny 221.00 -Nz 0.00 -Ne -1.000000 -Nl RTR -Nw --- -Ma 0 -Md ffffffff -Ms 0 -Mt 800 -Is 0.255 -Id -1.255 -It message -Il 32 -If 0 -Ii 0 -Iv 32 
r -t 0.036143644 -Hs 22 -Hd -1 -Ni 22 -Nx 592.00 -Ny 271.00 -Nz 0.00 -Ne -1.000000 -Nl RTR -Nw --- -Ma 0 -Md ffffffff -Ms 0 -Mt 800 -Is 0.255 -Id -1.255 -It message -Il 32 -If 0 -Ii 0 -Iv 32 
r -t 0.036143644 -Hs 5 -Hd -1 -Ni 5 -Nx 642.00 -Ny 421.00 -Nz 0.00 -Ne -1.000000 -Nl RTR -Nw --- -Ma 0 -Md ffffffff -Ms 0 -Mt 800 -Is 0.255 -Id -1.255 -It message -Il 32 -If 0 -Ii 0 -Iv 32 
s -t 0.086681100 -Hs 11 -Hd -1 -Ni 11 -Nx 642.00 -Ny 371.00 -Nz 0.00 -Ne -1.000000 -Nl RTR -Nw --- -Ma 0 -Md 0 -Ms 0 -Mt 0 -Is 11.255 -Id -1.255 -It message -Il 32 -If 0 -Ii 1 -Iv 32 
s -t 0.086856100 -Hs 11 -Hd -1 -Ni 11 -Nx 642.00 -Ny 371.00 -Nz 0.00 -Ne -1.000000 -Nl MAC -Nw --- -Ma 0 -Md ffffffff -Ms b -Mt 800 -Is 11.255 -Id -1.255 -It message -Il 90 -If 0 -Ii 1 -Iv 32 
r -t 0.087576267 -Hs 5 -Hd -1 -Ni 5 -Nx 642.00 -Ny 421.00 -Nz 0.00 -Ne -1.000000 -Nl MAC -Nw --- -Ma 0 -Md ffffffff -Ms b -Mt 800 -Is 11.255 -Id -1.255 -It message -Il 32 -If 0 -Ii 1 -Iv 32 
r -t 0.087576267 -Hs 10 -Hd -1 -Ni 10 -Nx 592.00 -Ny 371.00 -Nz 0.00 -Ne -1.000000 -Nl MAC -Nw --- -Ma 0 -Md ffffffff -Ms b -Mt 800 -Is 11.255 -Id -1.255 -It message -Il 32 -If 0 -Ii 1 -Iv 32 
r -t 0.087576267 -Hs 17 -Hd -1 -Ni 17 -Nx 642.00 -Ny 321.00 -Nz 0.00 -Ne -1.000000 -Nl MAC -Nw --- -Ma 0 -Md ffffffff -Ms b -Mt 800 -Is 11.255 -Id -1.255 -It message -Il 32 -If 0 -Ii 1 -Iv 32 
r -t 0.087576336 -Hs 16 -Hd -1 -Ni 16 -Nx 592.00 -Ny 321.00 -Nz 0.00 -Ne -1.000000 -Nl MAC -Nw --- -Ma 0 -Md ffffffff -Ms b -Mt 800 -Is 11.255 -Id -1.255 -It message -Il 32 -If 0 -Ii 1 -Iv 32 
r -t 0.087576336 -Hs 4 -Hd -1 -Ni 4 -Nx 592.00 -Ny 421.00 -Nz 0.00 -Ne -1.000000 -Nl MAC -Nw --- -Ma 0 -Md ffffffff -Ms b -Mt 800 -Is 11.255 -Id -1.255 -It message -Il 32 -If 0 -Ii 1 -Iv 32 
r -t 0.087576434 -Hs 9 -Hd -1 -Ni 9 -Nx 542.00 -Ny 371.00 -Nz 0.00 -Ne -1.000000 -Nl MAC -Nw --- -Ma 0 -Md ffffffff -Ms b -Mt 800 -Is 11.255 -Id -1.255 -It message -Il 32 -If 0 -Ii 1 -Iv 32 
r -t 0.087576434 -Hs 23 -Hd -1 -Ni 23 -Nx 642.00 -Ny 271.00 -Nz 0.00 -Ne -1.000000 -Nl MAC -Nw --- -Ma 0 -Md ffffffff -Ms b -Mt 800 -Is 11.255 -Id -1.255 -It message -Il 32 -If 0 -Ii 1 -Iv 32 
r -t 0.087576473 -Hs 22 -Hd -1 -Ni 22 -Nx 592.00 -Ny 271.00 -Nz 0.00 -Ne -1.000000 -Nl MAC -Nw --- -Ma 0 -Md ffffffff -Ms b -Mt 800 -Is 11.255 -Id -1.255 -It message -Il 32 -If 0 -Ii 1 -Iv 32 
r -t 0.087576473 -Hs 15 -Hd -1 -Ni 15 -Nx 542.00 -Ny 321.00 -Nz 0.00 -Ne -1.000000 -Nl MAC -Nw --- -Ma 0 -Md ffffffff -Ms b -Mt 800 -Is 11.255 -Id -1.255 -It message -Il 32 -If 0 -Ii 1 -Iv 32 
r -t 0.087576473 -Hs 3 -Hd -1 -Ni 3 -Nx 542.00 -Ny 421.00 -Nz 0.00 -Ne -1.000000 -Nl MAC -Nw --- -Ma 0 -Md ffffffff -Ms b -Mt 800 -Is 11.255 -Id -1.255 -It message -Il 32 -If 0 -Ii 1 -Iv 32 
r -t 0.087576572 -Hs 21 -Hd -1 -Ni 21 -Nx 542.00 -Ny 271.00 -Nz 0.00 -Ne -1.000000 -Nl MAC -Nw --- -Ma 0 -Md ffffffff -Ms b -Mt 800 -Is 11.255 -Id -1.255 -It message -Il 32 -If 0 -Ii 1 -Iv 32 
r -t 0.087576600 -Hs 8 -Hd -1 -Ni 8 -Nx 492.00 -Ny 371.00 -Nz 0.00 -Ne -1.000000 -Nl MAC -Nw --- -Ma 0 -Md ffffffff -Ms b -Mt 800 -Is 11.255 -Id -1.255 -It message -Il 32 -If 0 -Ii 1 -Iv 32 
r -t 0.087576600 -Hs 29 -Hd -1 -Ni 29 -Nx 642.00 -Ny 221.00 -Nz 0.00 -Ne -1.000000 -Nl MAC -Nw --- -Ma 0 -Md ffffffff -Ms b -Mt 800 -Is 11.255 -Id -1.255 -It message -Il 32 -If 0 -Ii 1 -Iv 32 
r -t 0.087576627 -Hs 28 -Hd -1 -Ni 28 -Nx 592.00 -Ny 221.00 -Nz 0.00 -Ne -1.000000 -Nl MAC -Nw --- -Ma 0 -Md ffffffff -Ms b -Mt 800 -Is 11.255 -Id -1.255 -It message -Il 32 -If 0 -Ii 1 -Iv 32 
r -t 0.087576627 -Hs 14 -Hd -1 -Ni 14 -Nx 492.00 -Ny 321.00 -Nz 0.00 -Ne -1.000000 -Nl MAC -Nw --- -Ma 0 -Md ffffffff -Ms b -Mt 800 -Is 11.255 -Id -1.255 -It message -Il 32 -If 0 -Ii 1 -Iv 32 
r -t 0.087576627 -Hs 2 -Hd -1 -Ni 2 -Nx 492.00 -Ny 421.00 -Nz 0.00 -Ne -1.000000 -Nl MAC -Nw --- -Ma 0 -Md ffffffff -Ms b -Mt 800 -Is 11.255 -Id -1.255 -It message -Il 32 -If 0 -Ii 1 -Iv 32 
r -t 0.087576701 -Hs 27 -Hd -1 -Ni 27 -Nx 542.00 -Ny 221.00 -Nz 0.00 -Ne -1.000000 -Nl MAC -Nw --- -Ma 0 -Md ffffffff -Ms b -Mt 800 -Is 11.255 -Id -1.255 -It message -Il 32 -If 0 -Ii 1 -Iv 32 
r -t 0.087576701 -Hs 20 -Hd -1 -Ni 20 -Nx 492.00 -Ny 271.00 -Nz 0.00 -Ne -1.000000 -Nl MAC -Nw --- -Ma 0 -Md ffffffff -Ms b -Mt 800 -Is 11.255 -Id -1.255 -It message -Il 32 -If 0 -Ii 1 -Iv 32 
r -t 0.087576767 -Hs 7 -Hd -1 -Ni 7 -Nx 442.00 -Ny 371.00 -Nz 0.00 -Ne -1.000000 -Nl MAC -Nw --- -Ma 0 -Md ffffffff -Ms b -Mt 800 -Is 11.255 -Id -1.255 -It message -Il 32 -If 0 -Ii 1 -Iv 32 
r -t 0.087576787 -Hs 13 -Hd -1 -Ni 13 -Nx 442.00 -Ny 321.00 -Nz 0.00 -Ne -1.000000 -Nl MAC -Nw --- -Ma 0 -Md ffffffff -Ms b -Mt 800 -Is 11.255 -Id -1.255 -It message -Il 32 -If 0 -Ii 1 -Iv 32 
r -t 0.087576787 -Hs 1 -Hd -1 -Ni 1 -Nx 442.00 -Ny 421.00 -Nz 0.00 -Ne -1.000000 -Nl MAC -Nw --- -Ma 0 -Md ffffffff -Ms b -Mt 800 -Is 11.255 -Id -1.255 -It message -Il 32 -If 0 -Ii 1 -Iv 32 
r -t 0.087576807 -Hs 26 -Hd -1 -Ni 26 -Nx 492.00 -Ny 221.00 -Nz 0.00 -Ne -1.000000 -Nl MAC -Nw --- -Ma 0 -Md ffffffff -Ms b -Mt 800 -Is 11.255 -Id -1.255 -It message -Il 32 -If 0 -Ii 1 -Iv 32 
r -t 0.087576846 -Hs 19 -Hd -1 -Ni 19 -Nx 442.00 -Ny 271.00 -Nz 0.00 -Ne -1.000000 -Nl MAC -Nw --- -Ma 0 -Md ffffffff -Ms b -Mt 800 -Is 11.255 -Id -1.255 -It message -Il 32 -If 0 -Ii 1 -Iv 32 
r -t 0.087576934 -Hs 25 -Hd -1 -Ni 25 -Nx 442.00 -Ny 221.00 -Nz 0.00 -Ne -1.000000 -Nl MAC -Nw --- -Ma 0 -Md ffffffff -Ms b -Mt 800 -Is 11.255 -Id -1.255 -It message -Il 32 -If 0 -Ii 1 -Iv 32 
r -t 0.087576934 -Hs 6 -Hd -1 -Ni 6 -Nx 392.00 -Ny 371.00 -Nz 0.00 -Ne -1.000000 -Nl MAC -Nw --- -Ma 0 -Md ffffffff -Ms b -Mt 800 -Is 11.255 -Id -1.255 -It message -Il 32 -If 0 -Ii 1 -Iv 32 
r -t 0.087601267 -Hs 5 -Hd -1 -Ni 5 -Nx 642.00 -Ny 421.00 -Nz 0.00 -Ne -1.000000 -Nl RTR -Nw --- -Ma 0 -Md ffffffff -Ms b -Mt 800 -Is 11.255 -Id -1.255 -It message -Il 32 -If 0 -Ii 1 -Iv 32 
r -t 0.087601267 -Hs 10 -Hd -1 -Ni 10 -Nx 592.00 -Ny 371.00 -Nz 0.00 -Ne -1.000000 -Nl RTR -Nw --- -Ma 0 -Md ffffffff -Ms b -Mt 800 -Is 11.255 -Id -1.255 -It message -Il 32 -If 0 -Ii 1 -Iv 32 
r -t 0.087601267 -Hs 17 -Hd -1 -Ni 17 -Nx 642.00 -Ny 321.00 -Nz 0.00 -Ne -1.000000 -Nl RTR -Nw --- -Ma 0 -Md ffffffff -Ms b -Mt 800 -Is 11.255 -Id -1.255 -It message -Il 32 -If 0 -Ii 1 -Iv 32 
r -t 0.087601336 -Hs 16 -Hd -1 -Ni 16 -Nx 592.00 -Ny 321.00 -Nz 0.00 -Ne -1.000000 -Nl RTR -Nw --- -Ma 0 -Md ffffffff -Ms b -Mt 800 -Is 11.255 -Id -1.255 -It message -Il 32 -If 0 -Ii 1 -Iv 32 
r -t 0.087601336 -Hs 4 -Hd -1 -Ni 4 -Nx 592.00 -Ny 421.00 -Nz 0.00 -Ne -1.000000 -Nl RTR -Nw --- -Ma 0 -Md ffffffff -Ms b -Mt 800 -Is 11.255 -Id -1.255 -It message -Il 32 -If 0 -Ii 1 -Iv 32 
r -t 0.087601434 -Hs 9 -Hd -1 -Ni 9 -Nx 542.00 -Ny 371.00 -Nz 0.00 -Ne -1.000000 -Nl RTR -Nw --- -Ma 0 -Md ffffffff -Ms b -Mt 800 -Is 11.255 -Id -1.255 -It message -Il 32 -If 0 -Ii 1 -Iv 32 
r -t 0.087601434 -Hs 23 -Hd -1 -Ni 23 -Nx 642.00 -Ny 271.00 -Nz 0.00 -Ne -1.000000 -Nl RTR -Nw --- -Ma 0 -Md ffffffff -Ms b -Mt 800 -Is 11.255 -Id -1.255 -It message -Il 32 -If 0 -Ii 1 -Iv 32 
r -t 0.087601473 -Hs 22 -Hd -1 -Ni 22 -Nx 592.00 -Ny 271.00 -Nz 0.00 -Ne -1.000000 -Nl RTR -Nw --- -Ma 0 -Md ffffffff -Ms b -Mt 800 -Is 11.255 -Id -1.255 -It message -Il 32 -If 0 -Ii 1 -Iv 32 
r -t 0.087601473 -Hs 15 -Hd -1 -Ni 15 -Nx 542.00 -Ny 321.00 -Nz 0.00 -Ne -1.000000 -Nl RTR -Nw --- -Ma 0 -Md ffffffff -Ms b -Mt 800 -Is 11.255 -Id -1.255 -It message -Il 32 -If 0 -Ii 1 -Iv 32 
r -t 0.087601473 -Hs 3 -Hd -1 -Ni 3 -Nx 542.00 -Ny 421.00 -Nz 0.00 -Ne -1.000000 -Nl RTR -Nw --- -Ma 0 -Md ffffffff -Ms b -Mt 800 -Is 11.255 -Id -1.255 -It message -Il 32 -If 0 -Ii 1 -Iv 32 
r -t 0.087601572 -Hs 21 -Hd -1 -Ni 21 -Nx 542.00 -Ny 271.00 -Nz 0.00 -Ne -1.000000 -Nl RTR -Nw --- -Ma 0 -Md ffffffff -Ms b -Mt 800 -Is 11.255 -Id -1.255 -It message -Il 32 -If 0 -Ii 1 -Iv 32 
r -t 0.087601600 -Hs 8 -Hd -1 -Ni 8 -Nx 492.00 -Ny 371.00 -Nz 0.00 -Ne -1.000000 -Nl RTR -Nw --- -Ma 0 -Md ffffffff -Ms b -Mt 800 -Is 11.255 -Id -1.255 -It message -Il 32 -If 0 -Ii 1 -Iv 32 
r -t 0.087601600 -Hs 29 -Hd -1 -Ni 29 -Nx 642.00 -Ny 221.00 -Nz 0.00 -Ne -1.000000 -Nl RTR -Nw --- -Ma 0 -Md ffffffff -Ms b -Mt 800 -Is 11.255 -Id -1.255 -It message -Il 32 -If 0 -Ii 1 -Iv 32 
r -t 0.087601627 -Hs 28 -Hd -1 -Ni 28 -Nx 592.00 -Ny 221.00 -Nz 0.00 -Ne -1.000000 -Nl RTR -Nw --- -Ma 0 -Md ffffffff -Ms b -Mt 800 -Is 11.255 -Id -1.255 -It message -Il 32 -If 0 -Ii 1 -Iv 32 
r -t 0.087601627 -Hs 14 -Hd -1 -Ni 14 -Nx 492.00 -Ny 321.00 -Nz 0.00 -Ne -1.000000 -Nl RTR -Nw --- -Ma 0 -Md ffffffff -Ms b -Mt 800 -Is 11.255 -Id -1.255 -It message -Il 32 -If 0 -Ii 1 -Iv 32 
r -t 0.087601627 -Hs 2 -Hd -1 -Ni 2 -Nx 492.00 -Ny 421.00 -Nz 0.00 -Ne -1.000000 -Nl RTR -Nw --- -Ma 0 -Md ffffffff -Ms b -Mt 800 -Is 11.255 -Id -1.255 -It message -Il 32 -If 0 -Ii 1 -Iv 32 
r -t 0.087601701 -Hs 27 -Hd -1 -Ni 27 -Nx 542.00 -Ny 221.00 -Nz 0.00 -Ne -1.000000 -Nl RTR -Nw --- -Ma 0 -Md ffffffff -Ms b -Mt 800 -Is 11.255 -Id -1.255 -It message -Il 32 -If 0 -Ii 1 -Iv 32 
r -t 0.087601701 -Hs 20 -Hd -1 -Ni 20 -Nx 492.00 -Ny 271.00 -Nz 0.00 -Ne -1.000000 -Nl RTR -Nw --- -Ma 0 -Md ffffffff -Ms b -Mt 800 -Is 11.255 -Id -1.255 -It message -Il 32 -If 0 -Ii 1 -Iv 32 
r -t 0.087601767 -Hs 7 -Hd -1 -Ni 7 -Nx 442.00 -Ny 371.00 -Nz 0.00 -Ne -1.000000 -Nl RTR -Nw --- -Ma 0 -Md ffffffff -Ms b -Mt 800 -Is 11.255 -Id -1.255 -It message -Il 32 -If 0 -Ii 1 -Iv 32 
r -t 0.087601787 -Hs 13 -Hd -1 -Ni 13 -Nx 442.00 -Ny 321.00 -Nz 0.00 -Ne -1.000000 -Nl RTR -Nw --- -Ma 0 -Md ffffffff -Ms b -Mt 800 -Is 11.255 -Id -1.255 -It message -Il 32 -If 0 -Ii 1 -Iv 32 
r -t 0.087601787 -Hs 1 -Hd -1 -Ni 1 -Nx 442.00 -Ny 421.00 -Nz 0.00 -Ne -1.000000 -Nl RTR -Nw --- -Ma 0 -Md ffffffff -Ms b -Mt 800 -Is 11.255 -Id -1.255 -It message -Il 32 -If 0 -Ii 1 -Iv 32 
r -t 0.087601807 -Hs 26 -Hd -1 -Ni 26 -Nx 492.00 -Ny 221.00 -Nz 0.00 -Ne -1.000000 -Nl RTR -Nw --- -Ma 0 -Md ffffffff -Ms b -Mt 800 -Is 11.255 -Id -1.255 -It message -Il 32 -If 0 -Ii 1 -Iv 32 
r -t 0.087601846 -Hs 19 -Hd -1 -Ni 19 -Nx 442.00 -Ny 271.00 -Nz 0.00 -Ne -1.000000 -Nl RTR -Nw --- -Ma 0 -Md ffffffff -Ms b -Mt 800 -Is 11.255 -Id -1.255 -It message -Il 32 -If 0 -Ii 1 -Iv 32 
r -t 0.087601934 -Hs 25 -Hd -1 -Ni 25 -Nx 442.00 -Ny 221.00 -Nz 0.00 -Ne -1.000000 -Nl RTR -Nw --- -Ma 0 -Md ffffffff -Ms b -Mt 800 -Is 11.255 -Id -1.255 -It message -Il 32 -If 0 -Ii 1 -Iv 32 
r -t 0.087601934 -Hs 6 -Hd -1 -Ni 6 -Nx 392.00 -Ny 371.00 -Nz 0.00 -Ne -1.000000 -Nl RTR -Nw --- -Ma 0 -Md ffffffff -Ms b -Mt 800 -Is 11.255 -Id -1.255 -It message -Il 32 -If 0 -Ii 1 -Iv 32 
s -t 0.185707992 -Hs 1 -Hd -1 -Ni 1 -Nx 442.00 -Ny 421.00 -Nz 0.00 -Ne -1.000000 -Nl RTR -Nw --- -Ma 0 -Md 0 -Ms 0 -Mt 0 -Is 1.255 -Id -1.255 -It message -Il 32 -If 0 -Ii 2 -Iv 32 
s -t 0.186362992 -Hs 1 -Hd -1 -Ni 1 -Nx 442.00 -Ny 421.00 -Nz 0.00 -Ne -1.000000 -Nl MAC -Nw --- -Ma 0 -Md ffffffff -Ms 1 -Mt 800 -Is 1.255 -Id -1.255 -It message -Il 90 -If 0 -Ii 2 -Iv 32 
r -t 0.187083159 -Hs 0 -Hd -1 -Ni 0 -Nx 392.00 -Ny 421.00 -Nz 0.00 -Ne -1.000000 -Nl MAC -Nw --- -Ma 0 -Md ffffffff -Ms 1 -Mt 800 -Is 1.255 -Id -1.255 -It message -Il 32 -If 0 -Ii 2 -Iv 32 
r -t 0.187083159 -Hs 7 -Hd -1 -Ni 7 -Nx 442.00 -Ny 371.00 -Nz 0.00 -Ne -1.000000 -Nl MAC -Nw --- -Ma 0 -Md ffffffff -Ms 1 -Mt 800 -Is 1.255 -Id -1.255 -It message -Il 32 -If 0 -Ii 2 -Iv 32 
r -t 0.187083159 -Hs 2 -Hd -1 -Ni 2 -Nx 492.00 -Ny 421.00 -Nz 0.00 -Ne -1.000000 -Nl MAC -Nw --- -Ma 0 -Md ffffffff -Ms 1 -Mt 800 -Is 1.255 -Id -1.255 -It message -Il 32 -If 0 -Ii 2 -Iv 32 
r -t 0.187083228 -Hs 6 -Hd -1 -Ni 6 -Nx 392.00 -Ny 371.00 -Nz 0.00 -Ne -1.000000 -Nl MAC -Nw --- -Ma 0 -Md ffffffff -Ms 1 -Mt 800 -Is 1.255 -Id -1.255 -It message -Il 32 -If 0 -Ii 2 -Iv 32 
r -t 0.187083228 -Hs 8 -Hd -1 -Ni 8 -Nx 492.00 -Ny 371.00 -Nz 0.00 -Ne -1.000000 -Nl MAC -Nw --- -Ma 0 -Md ffffffff -Ms 1 -Mt 800 -Is 1.255 -Id -1.255 -It message -Il 32 -If 0 -Ii 2 -Iv 32 
r -t 0.187083325 -Hs 13 -Hd -1 -Ni 13 -Nx 442.00 -Ny 321.00 -Nz 0.00 -Ne -1.000000 -Nl MAC -Nw --- -Ma 0 -Md ffffffff -Ms 1 -Mt 800 -Is 1.255 -Id -1.255 -It message -Il 32 -If 0 -Ii 2 -Iv 32 
r -t 0.187083325 -Hs 3 -Hd -1 -Ni 3 -Nx 542.00 -Ny 421.00 -Nz 0.00 -Ne -1.000000 -Nl MAC -Nw --- -Ma 0 -Md ffffffff -Ms 1 -Mt 800 -Is 1.255 -Id -1.255 -It message -Il 32 -If 0 -Ii 2 -Iv 32 
r -t 0.187083365 -Hs 12 -Hd -1 -Ni 12 -Nx 392.00 -Ny 321.00 -Nz 0.00 -Ne -1.000000 -Nl MAC -Nw --- -Ma 0 -Md ffffffff -Ms 1 -Mt 800 -Is 1.255 -Id -1.255 -It message -Il 32 -If 0 -Ii 2 -Iv 32 
r -t 0.187083365 -Hs 14 -Hd -1 -Ni 14 -Nx 492.00 -Ny 321.00 -Nz 0.00 -Ne -1.000000 -Nl MAC -Nw --- -Ma 0 -Md ffffffff -Ms 1 -Mt 800 -Is 1.255 -Id -1.255 -It message -Il 32 -If 0 -Ii 2 -Iv 32 
r -t 0.187083365 -Hs 9 -Hd -1 -Ni 9 -Nx 542.00 -Ny 371.00 -Nz 0.00 -Ne -1.000000 -Nl MAC -Nw --- -Ma 0 -Md ffffffff -Ms 1 -Mt 800 -Is 1.255 -Id -1.255 -It message -Il 32 -If 0 -Ii 2 -Iv 32 
r -t 0.187083464 -Hs 15 -Hd -1 -Ni 15 -Nx 542.00 -Ny 321.00 -Nz 0.00 -Ne -1.000000 -Nl MAC -Nw --- -Ma 0 -Md ffffffff -Ms 1 -Mt 800 -Is 1.255 -Id -1.255 -It message -Il 32 -If 0 -Ii 2 -Iv 32 
r -t 0.187083492 -Hs 19 -Hd -1 -Ni 19 -Nx 442.00 -Ny 271.00 -Nz 0.00 -Ne -1.000000 -Nl MAC -Nw --- -Ma 0 -Md ffffffff -Ms 1 -Mt 800 -Is 1.255 -Id -1.255 -It message -Il 32 -If 0 -Ii 2 -Iv 32 
r -t 0.187083492 -Hs 4 -Hd -1 -Ni 4 -Nx 592.00 -Ny 421.00 -Nz 0.00 -Ne -1.000000 -Nl MAC -Nw --- -Ma 0 -Md ffffffff -Ms 1 -Mt 800 -Is 1.255 -Id -1.255 -It message -Il 32 -If 0 -Ii 2 -Iv 32 
r -t 0.187083519 -Hs 18 -Hd -1 -Ni 18 -Nx 392.00 -Ny 271.00 -Nz 0.00 -Ne -1.000000 -Nl MAC -Nw --- -Ma 0 -Md ffffffff -Ms 1 -Mt 800 -Is 1.255 -Id -1.255 -It message -Il 32 -If 0 -Ii 2 -Iv 32 
r -t 0.187083519 -Hs 20 -Hd -1 -Ni 20 -Nx 492.00 -Ny 271.00 -Nz 0.00 -Ne -1.000000 -Nl MAC -Nw --- -Ma 0 -Md ffffffff -Ms 1 -Mt 800 -Is 1.255 -Id -1.255 -It message -Il 32 -If 0 -Ii 2 -Iv 32 
r -t 0.187083519 -Hs 10 -Hd -1 -Ni 10 -Nx 592.00 -Ny 371.00 -Nz 0.00 -Ne -1.000000 -Nl MAC -Nw --- -Ma 0 -Md ffffffff -Ms 1 -Mt 800 -Is 1.255 -Id -1.255 -It message -Il 32 -If 0 -Ii 2 -Iv 32 
r -t 0.187083593 -Hs 21 -Hd -1 -Ni 21 -Nx 542.00 -Ny 271.00 -Nz 0.00 -Ne -1.000000 -Nl MAC -Nw --- -Ma 0 -Md ffffffff -Ms 1 -Mt 800 -Is 1.255 -Id -1.255 -It message -Il 32 -If 0 -Ii 2 -Iv 32 
r -t 0.187083593 -Hs 16 -Hd -1 -Ni 16 -Nx 592.00 -Ny 321.00 -Nz 0.00 -Ne -1.000000 -Nl MAC -Nw --- -Ma 0 -Md ffffffff -Ms 1 -Mt 800 -Is 1.255 -Id -1.255 -It message -Il 32 -If 0 -Ii 2 -Iv 32 
r -t 0.187083659 -Hs 25 -Hd -1 -Ni 25 -Nx 442.00 -Ny 221.00 -Nz 0.00 -Ne -1.000000 -Nl MAC -Nw --- -Ma 0 -Md ffffffff -Ms 1 -Mt 800 -Is 1.255 -Id -1.255 -It message -Il 32 -If 0 -Ii 2 -Iv 32 
r -t 0.187083659 -Hs 5 -Hd -1 -Ni 5 -Nx 642.00 -Ny 421.00 -Nz 0.00 -Ne -1.000000 -Nl MAC -Nw --- -Ma 0 -Md ffffffff -Ms 1 -Mt 800 -Is 1.255 -Id -1.255 -It message -Il 32 -If 0 -Ii 2 -Iv 32 
r -t 0.187083679 -Hs 24 -Hd -1 -Ni 24 -Nx 392.00 -Ny 221.00 -Nz 0.00 -Ne -1.000000 -Nl MAC -Nw --- -Ma 0 -Md ffffffff -Ms 1 -Mt 800 -Is 1.255 -Id -1.255 -It message -Il 32 -If 0 -Ii 2 -Iv 32 
r -t 0.187083679 -Hs 26 -Hd -1 -Ni 26 -Nx 492.00 -Ny 221.00 -Nz 0.00 -Ne -1.000000 -Nl MAC -Nw --- -Ma 0 -Md ffffffff -Ms 1 -Mt 800 -Is 1.255 -Id -1.255 -It message -Il 32 -If 0 -Ii 2 -Iv 32 
r -t 0.187083679 -Hs 11 -Hd -1 -Ni 11 -Nx 642.00 -Ny 371.00 -Nz 0.00 -Ne -1.000000 -Nl MAC -Nw --- -Ma 0 -Md ffffffff -Ms 1 -Mt 800 -Is 1.255 -Id -1.255 -It message -Il 32 -If 0 -Ii 2 -Iv 32 
r -t 0.187083699 -Hs 22 -Hd -1 -Ni 22 -Nx 592.00 -Ny 271.00 -Nz 0.00 -Ne -1.000000 -Nl MAC -Nw --- -Ma 0 -Md ffffffff -Ms 1 -Mt 800 -Is 1.255 -Id -1.255 -It message -Il 32 -If 0 -Ii 2 -Iv 32 
r -t 0.187083738 -Hs 27 -Hd -1 -Ni 27 -Nx 542.00 -Ny 221.00 -Nz 0.00 -Ne -1.000000 -Nl MAC -Nw --- -Ma 0 -Md ffffffff -Ms 1 -Mt 800 -Is 1.255 -Id -1.255 -It message -Il 32 -If 0 -Ii 2 -Iv 32 
r -t 0.187083738 -Hs 17 -Hd -1 -Ni 17 -Nx 642.00 -Ny 321.00 -Nz 0.00 -Ne -1.000000 -Nl MAC -Nw --- -Ma 0 -Md ffffffff -Ms 1 -Mt 800 -Is 1.255 -Id -1.255 -It message -Il 32 -If 0 -Ii 2 -Iv 32 
r -t 0.187083825 -Hs 28 -Hd -1 -Ni 28 -Nx 592.00 -Ny 221.00 -Nz 0.00 -Ne -1.000000 -Nl MAC -Nw --- -Ma 0 -Md ffffffff -Ms 1 -Mt 800 -Is 1.255 -Id -1.255 -It message -Il 32 -If 0 -Ii 2 -Iv 32 
r -t 0.187083825 -Hs 23 -Hd -1 -Ni 23 -Nx 642.00 -Ny 271.00 -Nz 0.00 -Ne -1.000000 -Nl MAC -Nw --- -Ma 0 -Md ffffffff -Ms 1 -Mt 800 -Is 1.255 -Id -1.255 -It message -Il 32 -If 0 -Ii 2 -Iv 32 
r -t 0.187108159 -Hs 0 -Hd -1 -Ni 0 -Nx 392.00 -Ny 421.00 -Nz 0.00 -Ne -1.000000 -Nl RTR -Nw --- -Ma 0 -Md ffffffff -Ms 1 -Mt 800 -Is 1.255 -Id -1.255 -It message -Il 32 -If 0 -Ii 2 -Iv 32 
r -t 0.187108159 -Hs 7 -Hd -1 -Ni 7 -Nx 442.00 -Ny 371.00 -Nz 0.00 -Ne -1.000000 -Nl RTR -Nw --- -Ma 0 -Md ffffffff -Ms 1 -Mt 800 -Is 1.255 -Id -1.255 -It message -Il 32 -If 0 -Ii 2 -Iv 32 
r -t 0.187108159 -Hs 2 -Hd -1 -Ni 2 -Nx 492.00 -Ny 421.00 -Nz 0.00 -Ne -1.000000 -Nl RTR -Nw --- -Ma 0 -Md ffffffff -Ms 1 -Mt 800 -Is 1.255 -Id -1.255 -It message -Il 32 -If 0 -Ii 2 -Iv 32 
r -t 0.187108228 -Hs 6 -Hd -1 -Ni 6 -Nx 392.00 -Ny 371.00 -Nz 0.00 -Ne -1.000000 -Nl RTR -Nw --- -Ma 0 -Md ffffffff -Ms 1 -Mt 800 -Is 1.255 -Id -1.255 -It message -Il 32 -If 0 -Ii 2 -Iv 32 
r -t 0.187108228 -Hs 8 -Hd -1 -Ni 8 -Nx 492.00 -Ny 371.00 -Nz 0.00 -Ne -1.000000 -Nl RTR -Nw --- -Ma 0 -Md ffffffff -Ms 1 -Mt 800 -Is 1.255 -Id -1.255 -It message -Il 32 -If 0 -Ii 2 -Iv 32 
r -t 0.187108325 -Hs 13 -Hd -1 -Ni 13 -Nx 442.00 -Ny 321.00 -Nz 0.00 -Ne -1.000000 -Nl RTR -Nw --- -Ma 0 -Md ffffffff -Ms 1 -Mt 800 -Is 1.255 -Id -1.255 -It message -Il 32 -If 0 -Ii 2 -Iv 32 
r -t 0.187108325 -Hs 3 -Hd -1 -Ni 3 -Nx 542.00 -Ny 421.00 -Nz 0.00 -Ne -1.000000 -Nl RTR -Nw --- -Ma 0 -Md ffffffff -Ms 1 -Mt 800 -Is 1.255 -Id -1.255 -It message -Il 32 -If 0 -Ii 2 -Iv 32 
r -t 0.187108365 -Hs 12 -Hd -1 -Ni 12 -Nx 392.00 -Ny 321.00 -Nz 0.00 -Ne -1.000000 -Nl RTR -Nw --- -Ma 0 -Md ffffffff -Ms 1 -Mt 800 -Is 1.255 -Id -1.255 -It message -Il 32 -If 0 -Ii 2 -Iv 32 
r -t 0.187108365 -Hs 14 -Hd -1 -Ni 14 -Nx 492.00 -Ny 321.00 -Nz 0.00 -Ne -1.000000 -Nl RTR -Nw --- -Ma 0 -Md ffffffff -Ms 1 -Mt 800 -Is 1.255 -Id -1.255 -It message -Il 32 -If 0 -Ii 2 -Iv 32 
r -t 0.187108365 -Hs 9 -Hd -1 -Ni 9 -Nx 542.00 -Ny 371.00 -Nz 0.00 -Ne -1.000000 -Nl RTR -Nw --- -Ma 0 -Md ffffffff -Ms 1 -Mt 800 -Is 1.255 -Id -1.255 -It message -Il 32 -If 0 -Ii 2 -Iv 32 
r -t 0.187108464 -Hs 15 -Hd -1 -Ni 15 -Nx 542.00 -Ny 321.00 -Nz 0.00 -Ne -1.000000 -Nl RTR -Nw --- -Ma 0 -Md ffffffff -Ms 1 -Mt 800 -Is 1.255 -Id -1.255 -It message -Il 32 -If 0 -Ii 2 -Iv 32 
r -t 0.187108492 -Hs 19 -Hd -1 -Ni 19 -Nx 442.00 -Ny 271.00 -Nz 0.00 -Ne -1.000000 -Nl RTR -Nw --- -Ma 0 -Md ffffffff -Ms 1 -Mt 800 -Is 1.255 -Id -1.255 -It message -Il 32 -If 0 -Ii 2 -Iv 32 
r -t 0.187108492 -Hs 4 -Hd -1 -Ni 4 -Nx 592.00 -Ny 421.00 -Nz 0.00 -Ne -1.000000 -Nl RTR -Nw --- -Ma 0 -Md ffffffff -Ms 1 -Mt 800 -Is 1.255 -Id -1.255 -It message -Il 32 -If 0 -Ii 2 -Iv 32 
r -t 0.187108519 -Hs 18 -Hd -1 -Ni 18 -Nx 392.00 -Ny 271.00 -Nz 0.00 -Ne -1.000000 -Nl RTR -Nw --- -Ma 0 -Md ffffffff -Ms 1 -Mt 800 -Is 1.255 -Id -1.255 -It message -Il 32 -If 0 -Ii 2 -Iv 32 
r -t 0.187108519 -Hs 20 -Hd -1 -Ni 20 -Nx 492.00 -Ny 271.00 -Nz 0.00 -Ne -1.000000 -Nl RTR -Nw --- -Ma 0 -Md ffffffff -Ms 1 -Mt 800 -Is 1.255 -Id -1.255 -It message -Il 32 -If 0 -Ii 2 -Iv 32 
r -t 0.187108519 -Hs 10 -Hd -1 -Ni 10 -Nx 592.00 -Ny 371.00 -Nz 0.00 -Ne -1.000000 -Nl RTR -Nw --- -Ma 0 -Md ffffffff -Ms 1 -Mt 800 -Is 1.255 -Id -1.255 -It message -Il 32 -If 0 -Ii 2 -Iv 32 
r -t 0.187108593 -Hs 21 -Hd -1 -Ni 21 -Nx 542.00 -Ny 271.00 -Nz 0.00 -Ne -1.000000 -Nl RTR -Nw --- -Ma 0 -Md ffffffff -Ms 1 -Mt 800 -Is 1.255 -Id -1.255 -It message -Il 32 -If 0 -Ii 2 -Iv 32 
r -t 0.187108593 -Hs 16 -Hd -1 -Ni 16 -Nx 592.00 -Ny 321.00 -Nz 0.00 -Ne -1.000000 -Nl RTR -Nw --- -Ma 0 -Md ffffffff -Ms 1 -Mt 800 -Is 1.255 -Id -1.255 -It message -Il 32 -If 0 -Ii 2 -Iv 32 
r -t 0.187108659 -Hs 25 -Hd -1 -Ni 25 -Nx 442.00 -Ny 221.00 -Nz 0.00 -Ne -1.000000 -Nl RTR -Nw --- -Ma 0 -Md ffffffff -Ms 1 -Mt 800 -Is 1.255 -Id -1.255 -It message -Il 32 -If 0 -Ii 2 -Iv 32 
r -t 0.187108659 -Hs 5 -Hd -1 -Ni 5 -Nx 642.00 -Ny 421.00 -Nz 0.00 -Ne -1.000000 -Nl RTR -Nw --- -Ma 0 -Md ffffffff -Ms 1 -Mt 800 -Is 1.255 -Id -1.255 -It message -Il 32 -If 0 -Ii 2 -Iv 32 
r -t 0.187108679 -Hs 24 -Hd -1 -Ni 24 -Nx 392.00 -Ny 221.00 -Nz 0.00 -Ne -1.000000 -Nl RTR -Nw --- -Ma 0 -Md ffffffff -Ms 1 -Mt 800 -Is 1.255 -Id -1.255 -It message -Il 32 -If 0 -Ii 2 -Iv 32 
r -t 0.187108679 -Hs 26 -Hd -1 -Ni 26 -Nx 492.00 -Ny 221.00 -Nz 0.00 -Ne -1.000000 -Nl RTR -Nw --- -Ma 0 -Md ffffffff -Ms 1 -Mt 800 -Is 1.255 -Id -1.255 -It message -Il 32 -If 0 -Ii 2 -Iv 32 
r -t 0.187108679 -Hs 11 -Hd -1 -Ni 11 -Nx 642.00 -Ny 371.00 -Nz 0.00 -Ne -1.000000 -Nl RTR -Nw --- -Ma 0 -Md ffffffff -Ms 1 -Mt 800 -Is 1.255 -Id -1.255 -It message -Il 32 -If 0 -Ii 2 -Iv 32 
r -t 0.187108699 -Hs 22 -Hd -1 -Ni 22 -Nx 592.00 -Ny 271.00 -Nz 0.00 -Ne -1.000000 -Nl RTR -Nw --- -Ma 0 -Md ffffffff -Ms 1 -Mt 800 -Is 1.255 -Id -1.255 -It message -Il 32 -If 0 -Ii 2 -Iv 32 