n -t * -s 0  -x 392 -y 421 -Z 0 -z 20  -v circle -c black
n -t * -s 1  -x 442 -y 421 -Z 0 -z 20  -v circle -c black
n -t * -s 2  -x 492 -y 421 -Z 0 -z 20  -v circle -c black
n -t * -s 3  -x 542 -y 421 -Z 0 -z 20  -v circle -c black
n -t * -s 4  -x 592 -y 421 -Z 0 -z 20  -v circle -c black
n -t * -s 5  -x 642 -y 421 -Z 0 -z 20  -v circle -c black
n -t * -s 6  -x 392 -y 371 -Z 0 -z 20  -v circle -c black
n -t * -s 7  -x 442 -y 371 -Z 0 -z 20  -v circle -c black
n -t * -s 8  -x 492 -y 371 -Z 0 -z 20  -v circle -c black
n -t * -s 9  -x 542 -y 371 -Z 0 -z 20  -v circle -c black
n -t * -s 10  -x 592 -y 371 -Z 0 -z 20  -v circle -c black
n -t * -s 11  -x 642 -y 371 -Z 0 -z 20  -v circle -c black
n -t * -s 12  -x 392 -y 321 -Z 0 -z 20  -v circle -c black
n -t * -s 13  -x 442 -y 321 -Z 0 -z 20  -v circle -c black
n -t * -s 14  -x 492 -y 321 -Z 0 -z 20  -v circle -c black
n -t * -s 15  -x 542 -y 321 -Z 0 -z 20  -v circle -c black
n -t * -s 16  -x 592 -y 321 -Z 0 -z 20  -v circle -c black
n -t * -s 17  -x 642 -y 321 -Z 0 -z 20  -v circle -c black
n -t * -s 18  -x 392 -y 271 -Z 0 -z 20  -v circle -c black
n -t * -s 19  -x 442 -y 271 -Z 0 -z 20  -v circle -c black
n -t * -s 20  -x 492 -y 271 -Z 0 -z 20  -v circle -c black
n -t * -s 21  -x 542 -y 271 -Z 0 -z 20  -v circle -c black
n -t * -s 22  -x 592 -y 271 -Z 0 -z 20  -v circle -c black
n -t * -s 23  -x 642 -y 271 -Z 0 -z 20  -v circle -c black
n -t * -s 24  -x 392 -y 221 -Z 0 -z 20  -v circle -c black
n -t * -s 25  -x 442 -y 221 -Z 0 -z 20  -v circle -c black
n -t * -s 26  -x 492 -y 221 -Z 0 -z 20  -v circle -c black
n -t * -s 27  -x 542 -y 221 -Z 0 -z 20  -v circle -c black
n -t * -s 28  -x 592 -y 221 -Z 0 -z 20  -v circle -c black
n -t * -s 29  -x 642 -y 221 -Z 0 -z 20  -v circle -c black
V -t * -v 1.0a5 -a 0
W -t * -x 742 -y 521
A -t * -n 1 -p 0 -o 0x7fffffff -c 30 -a 1
A -t * -h 1 -m 1073741823 -s 0
+ -t 0.035182811 -s 0 -d -1 -p message -e 32 -c 2 -a 0 -i 0 -k RTR 
- -t 0.035182811 -s 0 -d -1 -p message -e 32 -c 2 -a 0 -i 0 -k RTR
h -t 0.035182811 -s 0 -d -1 -p message -e 32 -c 2 -a 0 -i 0 -k RTR
+ -t 0.035397811 -s 0 -d -1 -p message -e 90 -c 2 -a 0 -i 0 -k MAC 
- -t 0.035397811 -s 0 -d -1 -p message -e 90 -c 2 -a 0 -i 0 -k MAC
h -t 0.035397811 -s 0 -d -1 -p message -e 90 -c 2 -a 0 -i 0 -k MAC
r -t 0.036117977 -s 6 -d -1 -p message -e 32 -c 2 -a 0 -i 0 -k MAC
r -t 0.036117977 -s 1 -d -1 -p message -e 32 -c 2 -a 0 -i 0 -k MAC
r -t 0.036118046 -s 7 -d -1 -p message -e 32 -c 2 -a 0 -i 0 -k MAC
r -t 0.036118144 -s 12 -d -1 -p message -e 32 -c 2 -a 0 -i 0 -k MAC
r -t 0.036118144 -s 2 -d -1 -p message -e 32 -c 2 -a 0 -i 0 -k MAC
r -t 0.036118183 -s 13 -d -1 -p message -e 32 -c 2 -a 0 -i 0 -k MAC
r -t 0.036118183 -s 8 -d -1 -p message -e 32 -c 2 -a 0 -i 0 -k MAC
r -t 0.036118282 -s 14 -d -1 -p message -e 32 -c 2 -a 0 -i 0 -k MAC
r -t 0.036118311 -s 18 -d -1 -p message -e 32 -c 2 -a 0 -i 0 -k MAC
r -t 0.036118311 -s 3 -d -1 -p message -e 32 -c 2 -a 0 -i 0 -k MAC
r -t 0.036118338 -s 19 -d -1 -p message -e 32 -c 2 -a 0 -i 0 -k MAC
r -t 0.036118338 -s 9 -d -1 -p message -e 32 -c 2 -a 0 -i 0 -k MAC
r -t 0.036118412 -s 20 -d -1 -p message -e 32 -c 2 -a 0 -i 0 -k MAC
r -t 0.036118412 -s 15 -d -1 -p message -e 32 -c 2 -a 0 -i 0 -k MAC
r -t 0.036118477 -s 24 -d -1 -p message -e 32 -c 2 -a 0 -i 0 -k MAC
r -t 0.036118477 -s 4 -d -1 -p message -e 32 -c 2 -a 0 -i 0 -k MAC
r -t 0.036118498 -s 25 -d -1 -p message -e 32 -c 2 -a 0 -i 0 -k MAC
r -t 0.036118498 -s 10 -d -1 -p message -e 32 -c 2 -a 0 -i 0 -k MAC
r -t 0.036118518 -s 21 -d -1 -p message -e 32 -c 2 -a 0 -i 0 -k MAC
r -t 0.036118556 -s 26 -d -1 -p message -e 32 -c 2 -a 0 -i 0 -k MAC
r -t 0.036118556 -s 16 -d -1 -p message -e 32 -c 2 -a 0 -i 0 -k MAC
r -t 0.036118644 -s 27 -d -1 -p message -e 32 -c 2 -a 0 -i 0 -k MAC
r -t 0.036118644 -s 22 -d -1 -p message -e 32 -c 2 -a 0 -i 0 -k MAC
r -t 0.036118644 -s 5 -d -1 -p message -e 32 -c 2 -a 0 -i 0 -k MAC
r -t 0.036142977 -s 6 -d -1 -p message -e 32 -c 2 -a 0 -i 0 -k RTR
r -t 0.036142977 -s 1 -d -1 -p message -e 32 -c 2 -a 0 -i 0 -k RTR
r -t 0.036143046 -s 7 -d -1 -p message -e 32 -c 2 -a 0 -i 0 -k RTR
r -t 0.036143144 -s 12 -d -1 -p message -e 32 -c 2 -a 0 -i 0 -k RTR
r -t 0.036143144 -s 2 -d -1 -p message -e 32 -c 2 -a 0 -i 0 -k RTR
r -t 0.036143183 -s 13 -d -1 -p message -e 32 -c 2 -a 0 -i 0 -k RTR
r -t 0.036143183 -s 8 -d -1 -p message -e 32 -c 2 -a 0 -i 0 -k RTR
r -t 0.036143282 -s 14 -d -1 -p message -e 32 -c 2 -a 0 -i 0 -k RTR
r -t 0.036143311 -s 18 -d -1 -p message -e 32 -c 2 -a 0 -i 0 -k RTR
r -t 0.036143311 -s 3 -d -1 -p message -e 32 -c 2 -a 0 -i 0 -k RTR
r -t 0.036143338 -s 19 -d -1 -p message -e 32 -c 2 -a 0 -i 0 -k RTR
r -t 0.036143338 -s 9 -d -1 -p message -e 32 -c 2 -a 0 -i 0 -k RTR
r -t 0.036143412 -s 20 -d -1 -p message -e 32 -c 2 -a 0 -i 0 -k RTR
r -t 0.036143412 -s 15 -d -1 -p message -e 32 -c 2 -a 0 -i 0 -k RTR
r -t 0.036143477 -s 24 -d -1 -p message -e 32 -c 2 -a 0 -i 0 -k RTR
r -t 0.036143477 -s 4 -d -1 -p message -e 32 -c 2 -a 0 -i 0 -k RTR
r -t 0.036143498 -s 25 -d -1 -p message -e 32 -c 2 -a 0 -i 0 -k RTR
r -t 0.036143498 -s 10 -d -1 -p message -e 32 -c 2 -a 0 -i 0 -k RTR
r -t 0.036143518 -s 21 -d -1 -p message -e 32 -c 2 -a 0 -i 0 -k RTR
r -t 0.036143556 -s 26 -d -1 -p message -e 32 -c 2 -a 0 -i 0 -k RTR
r -t 0.036143556 -s 16 -d -1 -p message -e 32 -c 2 -a 0 -i 0 -k RTR
r -t 0.036143644 -s 27 -d -1 -p message -e 32 -c 2 -a 0 -i 0 -k RTR
r -t 0.036143644 -s 22 -d -1 -p message -e 32 -c 2 -a 0 -i 0 -k RTR
r -t 0.036143644 -s 5 -d -1 -p message -e 32 -c 2 -a 0 -i 0 -k RTR
+ -t 0.086681100 -s 11 -d -1 -p message -e 32 -c 2 -a 0 -i 1 -k RTR 
- -t 0.086681100 -s 11 -d -1 -p message -e 32 -c 2 -a 0 -i 1 -k RTR
h -t 0.086681100 -s 11 -d -1 -p message -e 32 -c 2 -a 0 -i 1 -k RTR
+ -t 0.086856100 -s 11 -d -1 -p message -e 90 -c 2 -a 0 -i 1 -k MAC 
- -t 0.086856100 -s 11 -d -1 -p message -e 90 -c 2 -a 0 -i 1 -k MAC
h -t 0.086856100 -s 11 -d -1 -p message -e 90 -c 2 -a 0 -i 1 -k MAC
r -t 0.087576267 -s 5 -d -1 -p message -e 32 -c 2 -a 0 -i 1 -k MAC
r -t 0.087576267 -s 10 -d -1 -p message -e 32 -c 2 -a 0 -i 1 -k MAC
r -t 0.087576267 -s 17 -d -1 -p message -e 32 -c 2 -a 0 -i 1 -k MAC
r -t 0.087576336 -s 16 -d -1 -p message -e 32 -c 2 -a 0 -i 1 -k MAC
r -t 0.087576336 -s 4 -d -1 -p message -e 32 -c 2 -a 0 -i 1 -k MAC
r -t 0.087576434 -s 9 -d -1 -p message -e 32 -c 2 -a 0 -i 1 -k MAC
r -t 0.087576434 -s 23 -d -1 -p message -e 32 -c 2 -a 0 -i 1 -k MAC
r -t 0.087576473 -s 22 -d -1 -p message -e 32 -c 2 -a 0 -i 1 -k MAC
r -t 0.087576473 -s 15 -d -1 -p message -e 32 -c 2 -a 0 -i 1 -k MAC
r -t 0.087576473 -s 3 -d -1 -p message -e 32 -c 2 -a 0 -i 1 -k MAC
r -t 0.087576572 -s 21 -d -1 -p message -e 32 -c 2 -a 0 -i 1 -k MAC
r -t 0.087576600 -s 8 -d -1 -p message -e 32 -c 2 -a 0 -i 1 -k MAC
r -t 0.087576600 -s 29 -d -1 -p message -e 32 -c 2 -a 0 -i 1 -k MAC
r -t 0.087576627 -s 28 -d -1 -p message -e 32 -c 2 -a 0 -i 1 -k MAC
r -t 0.087576627 -s 14 -d -1 -p message -e 32 -c 2 -a 0 -i 1 -k MAC
r -t 0.087576627 -s 2 -d -1 -p message -e 32 -c 2 -a 0 -i 1 -k MAC
r -t 0.087576701 -s 27 -d -1 -p message -e 32 -c 2 -a 0 -i 1 -k MAC
r -t 0.087576701 -s 20 -d -1 -p message -e 32 -c 2 -a 0 -i 1 -k MAC
r -t 0.087576767 -s 7 -d -1 -p message -e 32 -c 2 -a 0 -i 1 -k MAC
r -t 0.087576787 -s 13 -d -1 -p message -e 32 -c 2 -a 0 -i 1 -k MAC
r -t 0.087576787 -s 1 -d -1 -p message -e 32 -c 2 -a 0 -i 1 -k MAC
r -t 0.087576807 -s 26 -d -1 -p message -e 32 -c 2 -a 0 -i 1 -k MAC
r -t 0.087576846 -s 19 -d -1 -p message -e 32 -c 2 -a 0 -i 1 -k MAC
r -t 0.087576934 -s 25 -d -1 -p message -e 32 -c 2 -a 0 -i 1 -k MAC
r -t 0.087576934 -s 6 -d -1 -p message -e 32 -c 2 -a 0 -i 1 -k MAC
r -t 0.087601267 -s 5 -d -1 -p message -e 32 -c 2 -a 0 -i 1 -k RTR
r -t 0.087601267 -s 10 -d -1 -p message -e 32 -c 2 -a 0 -i 1 -k RTR
r -t 0.087601267 -s 17 -d -1 -p message -e 32 -c 2 -a 0 -i 1 -k RTR
r -t 0.087601336 -s 16 -d -1 -p message -e 32 -c 2 -a 0 -i 1 -k RTR
r -t 0.087601336 -s 4 -d -1 -p message -e 32 -c 2 -a 0 -i 1 -k RTR
r -t 0.087601434 -s 9 -d -1 -p message -e 32 -c 2 -a 0 -i 1 -k RTR
r -t 0.087601434 -s 23 -d -1 -p message -e 32 -c 2 -a 0 -i 1 -k RTR
r -t 0.087601473 -s 22 -d -1 -p message -e 32 -c 2 -a 0 -i 1 -k RTR
r -t 0.087601473 -s 15 -d -1 -p message -e 32 -c 2 -a 0 -i 1 -k RTR
r -t 0.087601473 -s 3 -d -1 -p message -e 32 -c 2 -a 0 -i 1 -k RTR
r -t 0.087601572 -s 21 -d -1 -p message -e 32 -c 2 -a 0 -i 1 -k RTR
r -t 0.087601600 -s 8 -d -1 -p message -e 32 -c 2 -a 0 -i 1 -k RTR
r -t 0.087601600 -s 29 -d -1 -p message -e 32 -c 2 -a 0 -i 1 -k RTR
r -t 0.087601627 -s 28 -d -1 -p message -e 32 -c 2 -a 0 -i 1 -k RTR
r -t 0.087601627 -s 14 -d -1 -p message -e 32 -c 2 -a 0 -i 1 -k RTR
r -t 0.087601627 -s 2 -d -1 -p message -e 32 -c 2 -a 0 -i 1 -k RTR
r -t 0.087601701 -s 27 -d -1 -p message -e 32 -c 2 -a 0 -i 1 -k RTR
r -t 0.087601701 -s 20 -d -1 -p message -e 32 -c 2 -a 0 -i 1 -k RTR
r -t 0.087601767 -s 7 -d -1 -p message -e 32 -c 2 -a 0 -i 1 -k RTR
r -t 0.087601787 -s 13 -d -1 -p message -e 32 -c 2 -a 0 -i 1 -k RTR
r -t 0.087601787 -s 1 -d -1 -p message -e 32 -c 2 -a 0 -i 1 -k RTR
r -t 0.087601807 -s 26 -d -1 -p message -e 32 -c 2 -a 0 -i 1 -k RTR
r -t 0.087601846 -s 19 -d -1 -p message -e 32 -c 2 -a 0 -i 1 -k RTR
r -t 0.087601934 -s 25 -d -1 -p message -e 32 -c 2 -a 0 -i 1 -k RTR
r -t 0.087601934 -s 6 -d -1 -p message -e 32 -c 2 -a 0 -i 1 -k RTR
+ -t 0.185707992 -s 1 -d -1 -p message -e 32 -c 2 -a 0 -i 2 -k RTR 
- -t 0.185707992 -s 1 -d -1 -p message -e 32 -c 2 -a 0 -i 2 -k RTR
h -t 0.185707992 -s 1 -d -1 -p message -e 32 -c 2 -a 0 -i 2 -k RTR
+ -t 0.186362992 -s 1 -d -1 -p message -e 90 -c 2 -a 0 -i 2 -k MAC 
- -t 0.186362992 -s 1 -d -1 -p message -e 90 -c 2 -a 0 -i 2 -k MAC
h -t 0.186362992 -s 1 -d -1 -p message -e 90 -c 2 -a 0 -i 2 -k MAC
r -t 0.187083159 -s 0 -d -1 -p message -e 32 -c 2 -a 0 -i 2 -k MAC
r -t 0.187083159 -s 7 -d -1 -p message -e 32 -c 2 -a 0 -i 2 -k MAC
r -t 0.187083159 -s 2 -d -1 -p message -e 32 -c 2 -a 0 -i 2 -k MAC
r -t 0.187083228 -s 6 -d -1 -p message -e 32 -c 2 -a 0 -i 2 -k MAC
r -t 0.187083228 -s 8 -d -1 -p message -e 32 -c 2 -a 0 -i 2 -k MAC
r -t 0.187083325 -s 13 -d -1 -p message -e 32 -c 2 -a 0 -i 2 -k MAC
r -t 0.187083325 -s 3 -d -1 -p message -e 32 -c 2 -a 0 -i 2 -k MAC
r -t 0.187083365 -s 12 -d -1 -p message -e 32 -c 2 -a 0 -i 2 -k MAC
r -t 0.187083365 -s 14 -d -1 -p message -e 32 -c 2 -a 0 -i 2 -k MAC
r -t 0.187083365 -s 9 -d -1 -p message -e 32 -c 2 -a 0 -i 2 -k MAC
r -t 0.187083464 -s 15 -d -1 -p message -e 32 -c 2 -a 0 -i 2 -k MAC
r -t 0.187083492 -s 19 -d -1 -p message -e 32 -c 2 -a 0 -i 2 -k MAC
r -t 0.187083492 -s 4 -d -1 -p message -e 32 -c 2 -a 0 -i 2 -k MAC
r -t 0.187083519 -s 18 -d -1 -p message -e 32 -c 2 -a 0 -i 2 -k MAC
r -t 0.187083519 -s 20 -d -1 -p message -e 32 -c 2 -a 0 -i 2 -k MAC
r -t 0.187083519 -s 10 -d -1 -p message -e 32 -c 2 -a 0 -i 2 -k MAC
r -t 0.187083593 -s 21 -d -1 -p message -e 32 -c 2 -a 0 -i 2 -k MAC
r -t 0.187083593 -s 16 -d -1 -p message -e 32 -c 2 -a 0 -i 2 -k MAC
r -t 0.187083659 -s 25 -d -1 -p message -e 32 -c 2 -a 0 -i 2 -k MAC
r -t 0.187083659 -s 5 -d -1 -p message -e 32 -c 2 -a 0 -i 2 -k MAC
r -t 0.187083679 -s 24 -d -1 -p message -e 32 -c 2 -a 0 -i 2 -k MAC
r -t 0.187083679 -s 26 -d -1 -p message -e 32 -c 2 -a 0 -i 2 -k MAC
r -t 0.187083679 -s 11 -d -1 -p message -e 32 -c 2 -a 0 -i 2 -k MAC
r -t 0.187083699 -s 22 -d -1 -p message -e 32 -c 2 -a 0 -i 2 -k MAC
r -t 0.187083738 -s 27 -d -1 -p message -e 32 -c 2 -a 0 -i 2 -k MAC
r -t 0.187083738 -s 17 -d -1 -p message -e 32 -c 2 -a 0 -i 2 -k MAC
r -t 0.187083825 -s 28 -d -1 -p message -e 32 -c 2 -a 0 -i 2 -k MAC
r -t 0.187083825 -s 23 -d -1 -p message -e 32 -c 2 -a 0 -i 2 -k MAC
r -t 0.187108159 -s 0 -d -1 -p message -e 32 -c 2 -a 0 -i 2 -k RTR
r -t 0.187108159 -s 7 -d -1 -p message -e 32 -c 2 -a 0 -i 2 -k RTR
r -t 0.187108159 -s 2 -d -1 -p message -e 32 -c 2 -a 0 -i 2 -k RTR
r -t 0.187108228 -s 6 -d -1 -p message -e 32 -c 2 -a 0 -i 2 -k RTR
r -t 0.187108228 -s 8 -d -1 -p message -e 32 -c 2 -a 0 -i 2 -k RTR
r -t 0.187108325 -s 13 -d -1 -p message -e 32 -c 2 -a 0 -i 2 -k RTR
r -t 0.187108325 -s 3 -d -1 -p message -e 32 -c 2 -a 0 -i 2 -k RTR
r -t 0.187108365 -s 12 -d -1 -p message -e 32 -c 2 -a 0 -i 2 -k RTR
r -t 0.187108365 -s 14 -d -1 -p message -e 32 -c 2 -a 0 -i 2 -k RTR
r -t 0.187108365 -s 9 -d -1 -p message -e 32 -c 2 -a 0 -i 2 -k RTR
r -t 0.187108464 -s 15 -d -1 -p message -e 32 -c 2 -a 0 -i 2 -k RTR
r -t 0.187108492 -s 19 -d -1 -p message -e 32 -c 2 -a 0 -i 2 -k RTR
r -t 0.187108492 -s 4 -d -1 -p message -e 32 -c 2 -a 0 -i 2 -k RTR
r -t 0.187108519 -s 18 -d -1 -p message -e 32 -c 2 -a 0 -i 2 -k RTR
r -t 0.187108519 -s 20 -d -1 -p message -e 32 -c 2 -a 0 -i 2 -k RTR
r -t 0.187108519 -s 10 -d -1 -p message -e 32 -c 2 -a 0 -i 2 -k RTR
r -t 0.187108593 -s 21 -d -1 -p message -e 32 -c 2 -a 0 -i 2 -k RTR
r -t 0.187108593 -s 16 -d -1 -p message -e 32 -c 2 -a 0 -i 2 -k RTR
r -t 0.187108659 -s 25 -d -1 -p message -e 32 -c 2 -a 0 -i 2 -k RTR
r -t 0.187108659 -s 5 -d -1 -p message -e 32 -c 2 -a 0 -i 2 -k RTR
r -t 0.187108679 -s 24 -d -1 -p message -e 32 -c 2 -a 0 -i 2 -k RTR
r -t 0.187108679 -s 26 -d -1 -p message -e 32 -c 2 -a 0 -i 2 -k RTR
r -t 0.187108679 -s 11 -d -1 -p message -e 32 -c 2 -a 0 -i 2 -k RTR
r -t 0.187108699 -s 22 -d -1 -p message -e 32 -c 2 -a 0 -i 2 -k RTR
r -t 0.187108738 -s 27 -d -1 -p message -e 32 -c 2 -a 0 -i 2 -k RTR
r -t 0.187108738 -s 17 -d -1 -p message -e 32 -c 2 -a 0 -i 2 -k RTR
r -t 0.187108825 -s 28 -d -1 -p message -e 32 -c 2 -a 0 -i 2 -k RTR
r -t 0.187108825 -s 23 -d -1 -p message -e 32 -c 2 -a 0 -i 2 -k RTR
+ -t 0.188385792 -s 17 -d -1 -p message -e 32 -c 2 -a 0 -i 3 -k RTR 
- -t 0.188385792 -s 17 -d -1 -p message -e 32 -c 2 -a 0 -i 3 -k RTR
h -t 0.188385792 -s 17 -d -1 -p message -e 32 -c 2 -a 0 -i 3 -k RTR
+ -t 0.188960792 -s 17 -d -1 -p message -e 90 -c 2 -a 0 -i 3 -k MAC 
- -t 0.188960792 -s 17 -d -1 -p message -e 90 -c 2 -a 0 -i 3 -k MAC
h -t 0.188960792 -s 17 -d -1 -p message -e 90 -c 2 -a 0 -i 3 -k MAC
r -t 0.189680959 -s 11 -d -1 -p message -e 32 -c 2 -a 0 -i 3 -k MAC
r -t 0.189680959 -s 16 -d -1 -p message -e 32 -c 2 -a 0 -i 3 -k MAC
r -t 0.189680959 -s 23 -d -1 -p message -e 32 -c 2 -a 0 -i 3 -k MAC
r -t 0.189681028 -s 22 -d -1 -p message -e 32 -c 2 -a 0 -i 3 -k MAC
r -t 0.189681028 -s 10 -d -1 -p message -e 32 -c 2 -a 0 -i 3 -k MAC
r -t 0.189681126 -s 5 -d -1 -p message -e 32 -c 2 -a 0 -i 3 -k MAC
r -t 0.189681126 -s 15 -d -1 -p message -e 32 -c 2 -a 0 -i 3 -k MAC
r -t 0.189681126 -s 29 -d -1 -p message -e 32 -c 2 -a 0 -i 3 -k MAC
r -t 0.189681165 -s 28 -d -1 -p message -e 32 -c 2 -a 0 -i 3 -k MAC
r -t 0.189681165 -s 4 -d -1 -p message -e 32 -c 2 -a 0 -i 3 -k MAC
r -t 0.189681165 -s 21 -d -1 -p message -e 32 -c 2 -a 0 -i 3 -k MAC
r -t 0.189681165 -s 9 -d -1 -p message -e 32 -c 2 -a 0 -i 3 -k MAC
r -t 0.189681264 -s 27 -d -1 -p message -e 32 -c 2 -a 0 -i 3 -k MAC
r -t 0.189681264 -s 3 -d -1 -p message -e 32 -c 2 -a 0 -i 3 -k MAC
r -t 0.189681292 -s 14 -d -1 -p message -e 32 -c 2 -a 0 -i 3 -k MAC
r -t 0.189681320 -s 20 -d -1 -p message -e 32 -c 2 -a 0 -i 3 -k MAC
r -t 0.189681320 -s 8 -d -1 -p message -e 32 -c 2 -a 0 -i 3 -k MAC
r -t 0.189681393 -s 26 -d -1 -p message -e 32 -c 2 -a 0 -i 3 -k MAC
r -t 0.189681393 -s 2 -d -1 -p message -e 32 -c 2 -a 0 -i 3 -k MAC
r -t 0.189681459 -s 13 -d -1 -p message -e 32 -c 2 -a 0 -i 3 -k MAC
r -t 0.189681480 -s 19 -d -1 -p message -e 32 -c 2 -a 0 -i 3 -k MAC
r -t 0.189681480 -s 7 -d -1 -p message -e 32 -c 2 -a 0 -i 3 -k MAC
r -t 0.189681538 -s 25 -d -1 -p message -e 32 -c 2 -a 0 -i 3 -k MAC
r -t 0.189681538 -s 1 -d -1 -p message -e 32 -c 2 -a 0 -i 3 -k MAC
r -t 0.189681626 -s 12 -d -1 -p message -e 32 -c 2 -a 0 -i 3 -k MAC
r -t 0.189705959 -s 11 -d -1 -p message -e 32 -c 2 -a 0 -i 3 -k RTR
r -t 0.189705959 -s 16 -d -1 -p message -e 32 -c 2 -a 0 -i 3 -k RTR
r -t 0.189705959 -s 23 -d -1 -p message -e 32 -c 2 -a 0 -i 3 -k RTR
r -t 0.189706028 -s 22 -d -1 -p message -e 32 -c 2 -a 0 -i 3 -k RTR
r -t 0.189706028 -s 10 -d -1 -p message -e 32 -c 2 -a 0 -i 3 -k RTR
r -t 0.189706126 -s 5 -d -1 -p message -e 32 -c 2 -a 0 -i 3 -k RTR
r -t 0.189706126 -s 15 -d -1 -p message -e 32 -c 2 -a 0 -i 3 -k RTR
r -t 0.189706126 -s 29 -d -1 -p message -e 32 -c 2 -a 0 -i 3 -k RTR
r -t 0.189706165 -s 28 -d -1 -p message -e 32 -c 2 -a 0 -i 3 -k RTR
r -t 0.189706165 -s 4 -d -1 -p message -e 32 -c 2 -a 0 -i 3 -k RTR
r -t 0.189706165 -s 21 -d -1 -p message -e 32 -c 2 -a 0 -i 3 -k RTR
r -t 0.189706165 -s 9 -d -1 -p message -e 32 -c 2 -a 0 -i 3 -k RTR
r -t 0.189706264 -s 27 -d -1 -p message -e 32 -c 2 -a 0 -i 3 -k RTR
r -t 0.189706264 -s 3 -d -1 -p message -e 32 -c 2 -a 0 -i 3 -k RTR
r -t 0.189706292 -s 14 -d -1 -p message -e 32 -c 2 -a 0 -i 3 -k RTR
r -t 0.189706320 -s 20 -d -1 -p message -e 32 -c 2 -a 0 -i 3 -k RTR
r -t 0.189706320 -s 8 -d -1 -p message -e 32 -c 2 -a 0 -i 3 -k RTR
r -t 0.189706393 -s 26 -d -1 -p message -e 32 -c 2 -a 0 -i 3 -k RTR
r -t 0.189706393 -s 2 -d -1 -p message -e 32 -c 2 -a 0 -i 3 -k RTR
r -t 0.189706459 -s 13 -d -1 -p message -e 32 -c 2 -a 0 -i 3 -k RTR
r -t 0.189706480 -s 19 -d -1 -p message -e 32 -c 2 -a 0 -i 3 -k RTR
r -t 0.189706480 -s 7 -d -1 -p message -e 32 -c 2 -a 0 -i 3 -k RTR
r -t 0.189706538 -s 25 -d -1 -p message -e 32 -c 2 -a 0 -i 3 -k RTR
r -t 0.189706538 -s 1 -d -1 -p message -e 32 -c 2 -a 0 -i 3 -k RTR
r -t 0.189706626 -s 12 -d -1 -p message -e 32 -c 2 -a 0 -i 3 -k RTR
+ -t 0.234302736 -s 13 -d -1 -p message -e 32 -c 2 -a 0 -i 4 -k RTR 
- -t 0.234302736 -s 13 -d -1 -p message -e 32 -c 2 -a 0 -i 4 -k RTR
h -t 0.234302736 -s 13 -d -1 -p message -e 32 -c 2 -a 0 -i 4 -k RTR
+ -t 0.234857736 -s 13 -d -1 -p message -e 90 -c 2 -a 0 -i 4 -k MAC 
- -t 0.234857736 -s 13 -d -1 -p message -e 90 -c 2 -a 0 -i 4 -k MAC
h -t 0.234857736 -s 13 -d -1 -p message -e 90 -c 2 -a 0 -i 4 -k MAC
r -t 0.235577903 -s 7 -d -1 -p message -e 32 -c 2 -a 0 -i 4 -k MAC
r -t 0.235577903 -s 12 -d -1 -p message -e 32 -c 2 -a 0 -i 4 -k MAC
r -t 0.235577903 -s 19 -d -1 -p message -e 32 -c 2 -a 0 -i 4 -k MAC
r -t 0.235577903 -s 14 -d -1 -p message -e 32 -c 2 -a 0 -i 4 -k MAC
r -t 0.235577972 -s 18 -d -1 -p message -e 32 -c 2 -a 0 -i 4 -k MAC
r -t 0.235577972 -s 6 -d -1 -p message -e 32 -c 2 -a 0 -i 4 -k MAC
r -t 0.235577972 -s 8 -d -1 -p message -e 32 -c 2 -a 0 -i 4 -k MAC
r -t 0.235577972 -s 20 -d -1 -p message -e 32 -c 2 -a 0 -i 4 -k MAC
r -t 0.235578069 -s 1 -d -1 -p message -e 32 -c 2 -a 0 -i 4 -k MAC
r -t 0.235578069 -s 25 -d -1 -p message -e 32 -c 2 -a 0 -i 4 -k MAC
r -t 0.235578069 -s 15 -d -1 -p message -e 32 -c 2 -a 0 -i 4 -k MAC
r -t 0.235578109 -s 24 -d -1 -p message -e 32 -c 2 -a 0 -i 4 -k MAC
r -t 0.235578109 -s 0 -d -1 -p message -e 32 -c 2 -a 0 -i 4 -k MAC
r -t 0.235578109 -s 2 -d -1 -p message -e 32 -c 2 -a 0 -i 4 -k MAC
r -t 0.235578109 -s 26 -d -1 -p message -e 32 -c 2 -a 0 -i 4 -k MAC
r -t 0.235578109 -s 9 -d -1 -p message -e 32 -c 2 -a 0 -i 4 -k MAC
r -t 0.235578109 -s 21 -d -1 -p message -e 32 -c 2 -a 0 -i 4 -k MAC
r -t 0.235578207 -s 3 -d -1 -p message -e 32 -c 2 -a 0 -i 4 -k MAC
r -t 0.235578207 -s 27 -d -1 -p message -e 32 -c 2 -a 0 -i 4 -k MAC
r -t 0.235578236 -s 16 -d -1 -p message -e 32 -c 2 -a 0 -i 4 -k MAC
r -t 0.235578263 -s 10 -d -1 -p message -e 32 -c 2 -a 0 -i 4 -k MAC
r -t 0.235578263 -s 22 -d -1 -p message -e 32 -c 2 -a 0 -i 4 -k MAC
r -t 0.235578337 -s 4 -d -1 -p message -e 32 -c 2 -a 0 -i 4 -k MAC
r -t 0.235578337 -s 28 -d -1 -p message -e 32 -c 2 -a 0 -i 4 -k MAC
r -t 0.235578403 -s 17 -d -1 -p message -e 32 -c 2 -a 0 -i 4 -k MAC
r -t 0.235578423 -s 11 -d -1 -p message -e 32 -c 2 -a 0 -i 4 -k MAC
r -t 0.235578423 -s 23 -d -1 -p message -e 32 -c 2 -a 0 -i 4 -k MAC
r -t 0.235578481 -s 5 -d -1 -p message -e 32 -c 2 -a 0 -i 4 -k MAC
r -t 0.235578481 -s 29 -d -1 -p message -e 32 -c 2 -a 0 -i 4 -k MAC
r -t 0.235602903 -s 7 -d -1 -p message -e 32 -c 2 -a 0 -i 4 -k RTR
r -t 0.235602903 -s 12 -d -1 -p message -e 32 -c 2 -a 0 -i 4 -k RTR
r -t 0.235602903 -s 19 -d -1 -p message -e 32 -c 2 -a 0 -i 4 -k RTR
r -t 0.235602903 -s 14 -d -1 -p message -e 32 -c 2 -a 0 -i 4 -k RTR
r -t 0.235602972 -s 18 -d -1 -p message -e 32 -c 2 -a 0 -i 4 -k RTR
r -t 0.235602972 -s 6 -d -1 -p message -e 32 -c 2 -a 0 -i 4 -k RTR
r -t 0.235602972 -s 8 -d -1 -p message -e 32 -c 2 -a 0 -i 4 -k RTR
r -t 0.235602972 -s 20 -d -1 -p message -e 32 -c 2 -a 0 -i 4 -k RTR
r -t 0.235603069 -s 1 -d -1 -p message -e 32 -c 2 -a 0 -i 4 -k RTR
r -t 0.235603069 -s 25 -d -1 -p message -e 32 -c 2 -a 0 -i 4 -k RTR
r -t 0.235603069 -s 15 -d -1 -p message -e 32 -c 2 -a 0 -i 4 -k RTR
r -t 0.235603109 -s 24 -d -1 -p message -e 32 -c 2 -a 0 -i 4 -k RTR
r -t 0.235603109 -s 0 -d -1 -p message -e 32 -c 2 -a 0 -i 4 -k RTR
r -t 0.235603109 -s 2 -d -1 -p message -e 32 -c 2 -a 0 -i 4 -k RTR
r -t 0.235603109 -s 26 -d -1 -p message -e 32 -c 2 -a 0 -i 4 -k RTR
r -t 0.235603109 -s 9 -d -1 -p message -e 32 -c 2 -a 0 -i 4 -k RTR
r -t 0.235603109 -s 21 -d -1 -p message -e 32 -c 2 -a 0 -i 4 -k RTR
r -t 0.235603207 -s 3 -d -1 -p message -e 32 -c 2 -a 0 -i 4 -k RTR
r -t 0.235603207 -s 27 -d -1 -p message -e 32 -c 2 -a 0 -i 4 -k RTR
r -t 0.235603236 -s 16 -d -1 -p message -e 32 -c 2 -a 0 -i 4 -k RTR
r -t 0.235603263 -s 10 -d -1 -p message -e 32 -c 2 -a 0 -i 4 -k RTR
r -t 0.235603263 -s 22 -d -1 -p message -e 32 -c 2 -a 0 -i 4 -k RTR
r -t 0.235603337 -s 4 -d -1 -p message -e 32 -c 2 -a 0 -i 4 -k RTR
r -t 0.235603337 -s 28 -d -1 -p message -e 32 -c 2 -a 0 -i 4 -k RTR
r -t 0.235603403 -s 17 -d -1 -p message -e 32 -c 2 -a 0 -i 4 -k RTR
r -t 0.235603423 -s 11 -d -1 -p message -e 32 -c 2 -a 0 -i 4 -k RTR
r -t 0.235603423 -s 23 -d -1 -p message -e 32 -c 2 -a 0 -i 4 -k RTR
r -t 0.235603481 -s 5 -d -1 -p message -e 32 -c 2 -a 0 -i 4 -k RTR
r -t 0.235603481 -s 29 -d -1 -p message -e 32 -c 2 -a 0 -i 4 -k RTR
+ -t 0.337057370 -s 10 -d -1 -p message -e 32 -c 2 -a 0 -i 5 -k RTR 
- -t 0.337057370 -s 10 -d -1 -p message -e 32 -c 2 -a 0 -i 5 -k RTR
h -t 0.337057370 -s 10 -d -1 -p message -e 32 -c 2 -a 0 -i 5 -k RTR
+ -t 0.337292370 -s 10 -d -1 -p message -e 90 -c 2 -a 0 -i 5 -k MAC 
- -t 0.337292370 -s 10 -d -1 -p message -e 90 -c 2 -a 0 -i 5 -k MAC
h -t 0.337292370 -s 10 -d -1 -p message -e 90 -c 2 -a 0 -i 5 -k MAC
r -t 0.338012537 -s 4 -d -1 -p message -e 32 -c 2 -a 0 -i 5 -k MAC
r -t 0.338012537 -s 9 -d -1 -p message -e 32 -c 2 -a 0 -i 5 -k MAC
r -t 0.338012537 -s 16 -d -1 -p message -e 32 -c 2 -a 0 -i 5 -k MAC
r -t 0.338012537 -s 11 -d -1 -p message -e 32 -c 2 -a 0 -i 5 -k MAC
r -t 0.338012606 -s 15 -d -1 -p message -e 32 -c 2 -a 0 -i 5 -k MAC
r -t 0.338012606 -s 3 -d -1 -p message -e 32 -c 2 -a 0 -i 5 -k MAC
r -t 0.338012606 -s 5 -d -1 -p message -e 32 -c 2 -a 0 -i 5 -k MAC
r -t 0.338012606 -s 17 -d -1 -p message -e 32 -c 2 -a 0 -i 5 -k MAC
r -t 0.338012703 -s 8 -d -1 -p message -e 32 -c 2 -a 0 -i 5 -k MAC
r -t 0.338012703 -s 22 -d -1 -p message -e 32 -c 2 -a 0 -i 5 -k MAC
r -t 0.338012743 -s 21 -d -1 -p message -e 32 -c 2 -a 0 -i 5 -k MAC
r -t 0.338012743 -s 14 -d -1 -p message -e 32 -c 2 -a 0 -i 5 -k MAC
r -t 0.338012743 -s 2 -d -1 -p message -e 32 -c 2 -a 0 -i 5 -k MAC
r -t 0.338012743 -s 23 -d -1 -p message -e 32 -c 2 -a 0 -i 5 -k MAC
r -t 0.338012841 -s 20 -d -1 -p message -e 32 -c 2 -a 0 -i 5 -k MAC
r -t 0.338012870 -s 7 -d -1 -p message -e 32 -c 2 -a 0 -i 5 -k MAC
r -t 0.338012870 -s 28 -d -1 -p message -e 32 -c 2 -a 0 -i 5 -k MAC
r -t 0.338012897 -s 27 -d -1 -p message -e 32 -c 2 -a 0 -i 5 -k MAC
r -t 0.338012897 -s 13 -d -1 -p message -e 32 -c 2 -a 0 -i 5 -k MAC
r -t 0.338012897 -s 1 -d -1 -p message -e 32 -c 2 -a 0 -i 5 -k MAC
r -t 0.338012897 -s 29 -d -1 -p message -e 32 -c 2 -a 0 -i 5 -k MAC
r -t 0.338012971 -s 26 -d -1 -p message -e 32 -c 2 -a 0 -i 5 -k MAC
r -t 0.338012971 -s 19 -d -1 -p message -e 32 -c 2 -a 0 -i 5 -k MAC
r -t 0.338013037 -s 6 -d -1 -p message -e 32 -c 2 -a 0 -i 5 -k MAC
r -t 0.338013057 -s 12 -d -1 -p message -e 32 -c 2 -a 0 -i 5 -k MAC
r -t 0.338013057 -s 0 -d -1 -p message -e 32 -c 2 -a 0 -i 5 -k MAC
r -t 0.338013077 -s 25 -d -1 -p message -e 32 -c 2 -a 0 -i 5 -k MAC
r -t 0.338013115 -s 18 -d -1 -p message -e 32 -c 2 -a 0 -i 5 -k MAC
r -t 0.338013203 -s 24 -d -1 -p message -e 32 -c 2 -a 0 -i 5 -k MAC
r -t 0.338037537 -s 4 -d -1 -p message -e 32 -c 2 -a 0 -i 5 -k RTR
r -t 0.338037537 -s 9 -d -1 -p message -e 32 -c 2 -a 0 -i 5 -k RTR
r -t 0.338037537 -s 16 -d -1 -p message -e 32 -c 2 -a 0 -i 5 -k RTR
r -t 0.338037537 -s 11 -d -1 -p message -e 32 -c 2 -a 0 -i 5 -k RTR
r -t 0.338037606 -s 15 -d -1 -p message -e 32 -c 2 -a 0 -i 5 -k RTR
r -t 0.338037606 -s 3 -d -1 -p message -e 32 -c 2 -a 0 -i 5 -k RTR
r -t 0.338037606 -s 5 -d -1 -p message -e 32 -c 2 -a 0 -i 5 -k RTR
r -t 0.338037606 -s 17 -d -1 -p message -e 32 -c 2 -a 0 -i 5 -k RTR
r -t 0.338037703 -s 8 -d -1 -p message -e 32 -c 2 -a 0 -i 5 -k RTR
r -t 0.338037703 -s 22 -d -1 -p message -e 32 -c 2 -a 0 -i 5 -k RTR
r -t 0.338037743 -s 21 -d -1 -p message -e 32 -c 2 -a 0 -i 5 -k RTR
r -t 0.338037743 -s 14 -d -1 -p message -e 32 -c 2 -a 0 -i 5 -k RTR
r -t 0.338037743 -s 2 -d -1 -p message -e 32 -c 2 -a 0 -i 5 -k RTR
r -t 0.338037743 -s 23 -d -1 -p message -e 32 -c 2 -a 0 -i 5 -k RTR
r -t 0.338037841 -s 20 -d -1 -p message -e 32 -c 2 -a 0 -i 5 -k RTR
r -t 0.338037870 -s 7 -d -1 -p message -e 32 -c 2 -a 0 -i 5 -k RTR
r -t 0.338037870 -s 28 -d -1 -p message -e 32 -c 2 -a 0 -i 5 -k RTR
r -t 0.338037897 -s 27 -d -1 -p message -e 32 -c 2 -a 0 -i 5 -k RTR
r -t 0.338037897 -s 13 -d -1 -p message -e 32 -c 2 -a 0 -i 5 -k RTR
r -t 0.338037897 -s 1 -d -1 -p message -e 32 -c 2 -a 0 -i 5 -k RTR
r -t 0.338037897 -s 29 -d -1 -p message -e 32 -c 2 -a 0 -i 5 -k RTR
r -t 0.338037971 -s 26 -d -1 -p message -e 32 -c 2 -a 0 -i 5 -k RTR
r -t 0.338037971 -s 19 -d -1 -p message -e 32 -c 2 -a 0 -i 5 -k RTR
r -t 0.338038037 -s 6 -d -1 -p message -e 32 -c 2 -a 0 -i 5 -k RTR
r -t 0.338038057 -s 12 -d -1 -p message -e 32 -c 2 -a 0 -i 5 -k RTR
r -t 0.338038057 -s 0 -d -1 -p message -e 32 -c 2 -a 0 -i 5 -k RTR
r -t 0.338038077 -s 25 -d -1 -p message -e 32 -c 2 -a 0 -i 5 -k RTR
r -t 0.338038115 -s 18 -d -1 -p message -e 32 -c 2 -a 0 -i 5 -k RTR
r -t 0.338038203 -s 24 -d -1 -p message -e 32 -c 2 -a 0 -i 5 -k RTR
+ -t 0.349886082 -s 16 -d -1 -p message -e 32 -c 2 -a 0 -i 6 -k RTR 
- -t 0.349886082 -s 16 -d -1 -p message -e 32 -c 2 -a 0 -i 6 -k RTR
h -t 0.349886082 -s 16 -d -1 -p message -e 32 -c 2 -a 0 -i 6 -k RTR
+ -t 0.349961082 -s 16 -d -1 -p message -e 90 -c 2 -a 0 -i 6 -k MAC 
- -t 0.349961082 -s 16 -d -1 -p message -e 90 -c 2 -a 0 -i 6 -k MAC
h -t 0.349961082 -s 16 -d -1 -p message -e 90 -c 2 -a 0 -i 6 -k MAC
r -t 0.350681249 -s 10 -d -1 -p message -e 32 -c 2 -a 0 -i 6 -k MAC
r -t 0.350681249 -s 15 -d -1 -p message -e 32 -c 2 -a 0 -i 6 -k MAC
r -t 0.350681249 -s 22 -d -1 -p message -e 32 -c 2 -a 0 -i 6 -k MAC
r -t 0.350681249 -s 17 -d -1 -p message -e 32 -c 2 -a 0 -i 6 -k MAC
r -t 0.350681318 -s 21 -d -1 -p message -e 32 -c 2 -a 0 -i 6 -k MAC
r -t 0.350681318 -s 9 -d -1 -p message -e 32 -c 2 -a 0 -i 6 -k MAC
r -t 0.350681318 -s 11 -d -1 -p message -e 32 -c 2 -a 0 -i 6 -k MAC
r -t 0.350681318 -s 23 -d -1 -p message -e 32 -c 2 -a 0 -i 6 -k MAC
r -t 0.350681416 -s 4 -d -1 -p message -e 32 -c 2 -a 0 -i 6 -k MAC
r -t 0.350681416 -s 14 -d -1 -p message -e 32 -c 2 -a 0 -i 6 -k MAC
r -t 0.350681416 -s 28 -d -1 -p message -e 32 -c 2 -a 0 -i 6 -k MAC
r -t 0.350681455 -s 27 -d -1 -p message -e 32 -c 2 -a 0 -i 6 -k MAC
r -t 0.350681455 -s 3 -d -1 -p message -e 32 -c 2 -a 0 -i 6 -k MAC
r -t 0.350681455 -s 20 -d -1 -p message -e 32 -c 2 -a 0 -i 6 -k MAC
r -t 0.350681455 -s 8 -d -1 -p message -e 32 -c 2 -a 0 -i 6 -k MAC
r -t 0.350681455 -s 5 -d -1 -p message -e 32 -c 2 -a 0 -i 6 -k MAC
r -t 0.350681455 -s 29 -d -1 -p message -e 32 -c 2 -a 0 -i 6 -k MAC
r -t 0.350681554 -s 26 -d -1 -p message -e 32 -c 2 -a 0 -i 6 -k MAC
r -t 0.350681554 -s 2 -d -1 -p message -e 32 -c 2 -a 0 -i 6 -k MAC
r -t 0.350681582 -s 13 -d -1 -p message -e 32 -c 2 -a 0 -i 6 -k MAC
r -t 0.350681609 -s 19 -d -1 -p message -e 32 -c 2 -a 0 -i 6 -k MAC
r -t 0.350681609 -s 7 -d -1 -p message -e 32 -c 2 -a 0 -i 6 -k MAC
r -t 0.350681683 -s 25 -d -1 -p message -e 32 -c 2 -a 0 -i 6 -k MAC
r -t 0.350681683 -s 1 -d -1 -p message -e 32 -c 2 -a 0 -i 6 -k MAC
r -t 0.350681749 -s 12 -d -1 -p message -e 32 -c 2 -a 0 -i 6 -k MAC
r -t 0.350681770 -s 18 -d -1 -p message -e 32 -c 2 -a 0 -i 6 -k MAC
r -t 0.350681770 -s 6 -d -1 -p message -e 32 -c 2 -a 0 -i 6 -k MAC
r -t 0.350681828 -s 24 -d -1 -p message -e 32 -c 2 -a 0 -i 6 -k MAC
r -t 0.350681828 -s 0 -d -1 -p message -e 32 -c 2 -a 0 -i 6 -k MAC
r -t 0.350706249 -s 10 -d -1 -p message -e 32 -c 2 -a 0 -i 6 -k RTR
r -t 0.350706249 -s 15 -d -1 -p message -e 32 -c 2 -a 0 -i 6 -k RTR
r -t 0.350706249 -s 22 -d -1 -p message -e 32 -c 2 -a 0 -i 6 -k RTR
r -t 0.350706249 -s 17 -d -1 -p message -e 32 -c 2 -a 0 -i 6 -k RTR
r -t 0.350706318 -s 21 -d -1 -p message -e 32 -c 2 -a 0 -i 6 -k RTR
r -t 0.350706318 -s 9 -d -1 -p message -e 32 -c 2 -a 0 -i 6 -k RTR
r -t 0.350706318 -s 11 -d -1 -p message -e 32 -c 2 -a 0 -i 6 -k RTR
r -t 0.350706318 -s 23 -d -1 -p message -e 32 -c 2 -a 0 -i 6 -k RTR
r -t 0.350706416 -s 4 -d -1 -p message -e 32 -c 2 -a 0 -i 6 -k RTR
r -t 0.350706416 -s 14 -d -1 -p message -e 32 -c 2 -a 0 -i 6 -k RTR
r -t 0.350706416 -s 28 -d -1 -p message -e 32 -c 2 -a 0 -i 6 -k RTR
r -t 0.350706455 -s 27 -d -1 -p message -e 32 -c 2 -a 0 -i 6 -k RTR
r -t 0.350706455 -s 3 -d -1 -p message -e 32 -c 2 -a 0 -i 6 -k RTR
r -t 0.350706455 -s 20 -d -1 -p message -e 32 -c 2 -a 0 -i 6 -k RTR
r -t 0.350706455 -s 8 -d -1 -p message -e 32 -c 2 -a 0 -i 6 -k RTR
r -t 0.350706455 -s 5 -d -1 -p message -e 32 -c 2 -a 0 -i 6 -k RTR
r -t 0.350706455 -s 29 -d -1 -p message -e 32 -c 2 -a 0 -i 6 -k RTR
r -t 0.350706554 -s 26 -d -1 -p message -e 32 -c 2 -a 0 -i 6 -k RTR
r -t 0.350706554 -s 2 -d -1 -p message -e 32 -c 2 -a 0 -i 6 -k RTR
r -t 0.350706582 -s 13 -d -1 -p message -e 32 -c 2 -a 0 -i 6 -k RTR
r -t 0.350706609 -s 19 -d -1 -p message -e 32 -c 2 -a 0 -i 6 -k RTR
r -t 0.350706609 -s 7 -d -1 -p message -e 32 -c 2 -a 0 -i 6 -k RTR
r -t 0.350706683 -s 25 -d -1 -p message -e 32 -c 2 -a 0 -i 6 -k RTR
r -t 0.350706683 -s 1 -d -1 -p message -e 32 -c 2 -a 0 -i 6 -k RTR