n -t * -s 0  -x 386 -y 395 -Z 0 -z 20  -v circle -c black
n -t * -s 1  -x 436 -y 395 -Z 0 -z 20  -v circle -c black
n -t * -s 2  -x 486 -y 395 -Z 0 -z 20  -v circle -c black
n -t * -s 3  -x 536 -y 395 -Z 0 -z 20  -v circle -c black
n -t * -s 4  -x 586 -y 395 -Z 0 -z 20  -v circle -c black
n -t * -s 5  -x 636 -y 395 -Z 0 -z 20  -v circle -c black
n -t * -s 6  -x 686 -y 395 -Z 0 -z 20  -v circle -c black
n -t * -s 7  -x 736 -y 395 -Z 0 -z 20  -v circle -c black
n -t * -s 8  -x 386 -y 345 -Z 0 -z 20  -v circle -c black
n -t * -s 9  -x 436 -y 345 -Z 0 -z 20  -v circle -c black
n -t * -s 10  -x 486 -y 345 -Z 0 -z 20  -v circle -c black
n -t * -s 11  -x 536 -y 345 -Z 0 -z 20  -v circle -c black
n -t * -s 12  -x 586 -y 345 -Z 0 -z 20  -v circle -c black
n -t * -s 13  -x 636 -y 345 -Z 0 -z 20  -v circle -c black
n -t * -s 14  -x 686 -y 345 -Z 0 -z 20  -v circle -c black
n -t * -s 15  -x 736 -y 345 -Z 0 -z 20  -v circle -c black
n -t * -s 16  -x 386 -y 295 -Z 0 -z 20  -v circle -c black
n -t * -s 17  -x 436 -y 295 -Z 0 -z 20  -v circle -c black
n -t * -s 18  -x 486 -y 295 -Z 0 -z 20  -v circle -c black
n -t * -s 19  -x 536 -y 295 -Z 0 -z 20  -v circle -c black
n -t * -s 20  -x 586 -y 295 -Z 0 -z 20  -v circle -c black
n -t * -s 21  -x 636 -y 295 -Z 0 -z 20  -v circle -c black
n -t * -s 22  -x 686 -y 295 -Z 0 -z 20  -v circle -c black
n -t * -s 23  -x 736 -y 295 -Z 0 -z 20  -v circle -c black
n -t * -s 24  -x 386 -y 245 -Z 0 -z 20  -v circle -c black
n -t * -s 25  -x 436 -y 245 -Z 0 -z 20  -v circle -c black
n -t * -s 26  -x 486 -y 245 -Z 0 -z 20  -v circle -c black
n -t * -s 27  -x 536 -y 245 -Z 0 -z 20  -v circle -c black
n -t * -s 28  -x 586 -y 245 -Z 0 -z 20  -v circle -c black
n -t * -s 29  -x 636 -y 245 -Z 0 -z 20  -v circle -c black
n -t * -s 30  -x 686 -y 245 -Z 0 -z 20  -v circle -c black
n -t * -s 31  -x 736 -y 245 -Z 0 -z 20  -v circle -c black
n -t * -s 32  -x 386 -y 195 -Z 0 -z 20  -v circle -c black
n -t * -s 33  -x 436 -y 195 -Z 0 -z 20  -v circle -c black
n -t * -s 34  -x 486 -y 195 -Z 0 -z 20  -v circle -c black
n -t * -s 35  -x 536 -y 195 -Z 0 -z 20  -v circle -c black
n -t * -s 36  -x 586 -y 195 -Z 0 -z 20  -v circle -c black
n -t * -s 37  -x 636 -y 195 -Z 0 -z 20  -v circle -c black
n -t * -s 38  -x 686 -y 195 -Z 0 -z 20  -v circle -c black
n -t * -s 39  -x 736 -y 195 -Z 0 -z 20  -v circle -c black
V -t * -v 1.0a5 -a 0
W -t * -x 836 -y 495
A -t * -n 1 -p 0 -o 0x7fffffff -c 30 -a 1
A -t * -h 1 -m 1073741823 -s 0
+ -t 0.029529634 -s 0 -d -1 -p message -e 32 -c 2 -a 0 -i 0 -k RTR 
- -t 0.029529634 -s 0 -d -1 -p message -e 32 -c 2 -a 0 -i 0 -k RTR
h -t 0.029529634 -s 0 -d -1 -p message -e 32 -c 2 -a 0 -i 0 -k RTR
+ -t 0.029724634 -s 0 -d -1 -p message -e 90 -c 2 -a 0 -i 0 -k MAC 
- -t 0.029724634 -s 0 -d -1 -p message -e 90 -c 2 -a 0 -i 0 -k MAC
h -t 0.029724634 -s 0 -d -1 -p message -e 90 -c 2 -a 0 -i 0 -k MAC
r -t 0.030444801 -s 8 -d -1 -p message -e 32 -c 2 -a 0 -i 0 -k MAC
r -t 0.030444801 -s 1 -d -1 -p message -e 32 -c 2 -a 0 -i 0 -k MAC
r -t 0.030444870 -s 9 -d -1 -p message -e 32 -c 2 -a 0 -i 0 -k MAC
r -t 0.030444968 -s 16 -d -1 -p message -e 32 -c 2 -a 0 -i 0 -k MAC
r -t 0.030444968 -s 2 -d -1 -p message -e 32 -c 2 -a 0 -i 0 -k MAC
r -t 0.030445007 -s 17 -d -1 -p message -e 32 -c 2 -a 0 -i 0 -k MAC
r -t 0.030445007 -s 10 -d -1 -p message -e 32 -c 2 -a 0 -i 0 -k MAC
r -t 0.030445106 -s 18 -d -1 -p message -e 32 -c 2 -a 0 -i 0 -k MAC
r -t 0.030445134 -s 24 -d -1 -p message -e 32 -c 2 -a 0 -i 0 -k MAC
r -t 0.030445134 -s 3 -d -1 -p message -e 32 -c 2 -a 0 -i 0 -k MAC
r -t 0.030445162 -s 25 -d -1 -p message -e 32 -c 2 -a 0 -i 0 -k MAC
r -t 0.030445162 -s 11 -d -1 -p message -e 32 -c 2 -a 0 -i 0 -k MAC
r -t 0.030445235 -s 26 -d -1 -p message -e 32 -c 2 -a 0 -i 0 -k MAC
r -t 0.030445235 -s 19 -d -1 -p message -e 32 -c 2 -a 0 -i 0 -k MAC
r -t 0.030445301 -s 32 -d -1 -p message -e 32 -c 2 -a 0 -i 0 -k MAC
r -t 0.030445301 -s 4 -d -1 -p message -e 32 -c 2 -a 0 -i 0 -k MAC
r -t 0.030445322 -s 33 -d -1 -p message -e 32 -c 2 -a 0 -i 0 -k MAC
r -t 0.030445322 -s 12 -d -1 -p message -e 32 -c 2 -a 0 -i 0 -k MAC
r -t 0.030445342 -s 27 -d -1 -p message -e 32 -c 2 -a 0 -i 0 -k MAC
r -t 0.030445380 -s 34 -d -1 -p message -e 32 -c 2 -a 0 -i 0 -k MAC
r -t 0.030445380 -s 20 -d -1 -p message -e 32 -c 2 -a 0 -i 0 -k MAC
r -t 0.030445468 -s 35 -d -1 -p message -e 32 -c 2 -a 0 -i 0 -k MAC
r -t 0.030445468 -s 28 -d -1 -p message -e 32 -c 2 -a 0 -i 0 -k MAC
r -t 0.030445468 -s 5 -d -1 -p message -e 32 -c 2 -a 0 -i 0 -k MAC
r -t 0.030469801 -s 8 -d -1 -p message -e 32 -c 2 -a 0 -i 0 -k RTR
r -t 0.030469801 -s 1 -d -1 -p message -e 32 -c 2 -a 0 -i 0 -k RTR
r -t 0.030469870 -s 9 -d -1 -p message -e 32 -c 2 -a 0 -i 0 -k RTR
r -t 0.030469968 -s 16 -d -1 -p message -e 32 -c 2 -a 0 -i 0 -k RTR
r -t 0.030469968 -s 2 -d -1 -p message -e 32 -c 2 -a 0 -i 0 -k RTR
r -t 0.030470007 -s 17 -d -1 -p message -e 32 -c 2 -a 0 -i 0 -k RTR
r -t 0.030470007 -s 10 -d -1 -p message -e 32 -c 2 -a 0 -i 0 -k RTR
r -t 0.030470106 -s 18 -d -1 -p message -e 32 -c 2 -a 0 -i 0 -k RTR
r -t 0.030470134 -s 24 -d -1 -p message -e 32 -c 2 -a 0 -i 0 -k RTR
r -t 0.030470134 -s 3 -d -1 -p message -e 32 -c 2 -a 0 -i 0 -k RTR
r -t 0.030470162 -s 25 -d -1 -p message -e 32 -c 2 -a 0 -i 0 -k RTR
r -t 0.030470162 -s 11 -d -1 -p message -e 32 -c 2 -a 0 -i 0 -k RTR
r -t 0.030470235 -s 26 -d -1 -p message -e 32 -c 2 -a 0 -i 0 -k RTR
r -t 0.030470235 -s 19 -d -1 -p message -e 32 -c 2 -a 0 -i 0 -k RTR
r -t 0.030470301 -s 32 -d -1 -p message -e 32 -c 2 -a 0 -i 0 -k RTR
r -t 0.030470301 -s 4 -d -1 -p message -e 32 -c 2 -a 0 -i 0 -k RTR
r -t 0.030470322 -s 33 -d -1 -p message -e 32 -c 2 -a 0 -i 0 -k RTR
r -t 0.030470322 -s 12 -d -1 -p message -e 32 -c 2 -a 0 -i 0 -k RTR
r -t 0.030470342 -s 27 -d -1 -p message -e 32 -c 2 -a 0 -i 0 -k RTR
r -t 0.030470380 -s 34 -d -1 -p message -e 32 -c 2 -a 0 -i 0 -k RTR
r -t 0.030470380 -s 20 -d -1 -p message -e 32 -c 2 -a 0 -i 0 -k RTR
r -t 0.030470468 -s 35 -d -1 -p message -e 32 -c 2 -a 0 -i 0 -k RTR
r -t 0.030470468 -s 28 -d -1 -p message -e 32 -c 2 -a 0 -i 0 -k RTR
r -t 0.030470468 -s 5 -d -1 -p message -e 32 -c 2 -a 0 -i 0 -k RTR
+ -t 0.088945743 -s 11 -d -1 -p message -e 32 -c 2 -a 0 -i 1 -k RTR 
- -t 0.088945743 -s 11 -d -1 -p message -e 32 -c 2 -a 0 -i 1 -k RTR
h -t 0.088945743 -s 11 -d -1 -p message -e 32 -c 2 -a 0 -i 1 -k RTR
+ -t 0.089200743 -s 11 -d -1 -p message -e 90 -c 2 -a 0 -i 1 -k MAC 
- -t 0.089200743 -s 11 -d -1 -p message -e 90 -c 2 -a 0 -i 1 -k MAC
h -t 0.089200743 -s 11 -d -1 -p message -e 90 -c 2 -a 0 -i 1 -k MAC
r -t 0.089920910 -s 3 -d -1 -p message -e 32 -c 2 -a 0 -i 1 -k MAC
r -t 0.089920910 -s 10 -d -1 -p message -e 32 -c 2 -a 0 -i 1 -k MAC
r -t 0.089920910 -s 19 -d -1 -p message -e 32 -c 2 -a 0 -i 1 -k MAC
r -t 0.089920910 -s 12 -d -1 -p message -e 32 -c 2 -a 0 -i 1 -k MAC
r -t 0.089920979 -s 18 -d -1 -p message -e 32 -c 2 -a 0 -i 1 -k MAC
r -t 0.089920979 -s 2 -d -1 -p message -e 32 -c 2 -a 0 -i 1 -k MAC
r -t 0.089920979 -s 4 -d -1 -p message -e 32 -c 2 -a 0 -i 1 -k MAC
r -t 0.089920979 -s 20 -d -1 -p message -e 32 -c 2 -a 0 -i 1 -k MAC
r -t 0.089921076 -s 9 -d -1 -p message -e 32 -c 2 -a 0 -i 1 -k MAC
r -t 0.089921076 -s 27 -d -1 -p message -e 32 -c 2 -a 0 -i 1 -k MAC
r -t 0.089921076 -s 13 -d -1 -p message -e 32 -c 2 -a 0 -i 1 -k MAC
r -t 0.089921116 -s 26 -d -1 -p message -e 32 -c 2 -a 0 -i 1 -k MAC
r -t 0.089921116 -s 17 -d -1 -p message -e 32 -c 2 -a 0 -i 1 -k MAC
r -t 0.089921116 -s 1 -d -1 -p message -e 32 -c 2 -a 0 -i 1 -k MAC
r -t 0.089921116 -s 28 -d -1 -p message -e 32 -c 2 -a 0 -i 1 -k MAC
r -t 0.089921116 -s 5 -d -1 -p message -e 32 -c 2 -a 0 -i 1 -k MAC
r -t 0.089921116 -s 21 -d -1 -p message -e 32 -c 2 -a 0 -i 1 -k MAC
r -t 0.089921214 -s 25 -d -1 -p message -e 32 -c 2 -a 0 -i 1 -k MAC
r -t 0.089921214 -s 29 -d -1 -p message -e 32 -c 2 -a 0 -i 1 -k MAC
r -t 0.089921243 -s 8 -d -1 -p message -e 32 -c 2 -a 0 -i 1 -k MAC
r -t 0.089921243 -s 35 -d -1 -p message -e 32 -c 2 -a 0 -i 1 -k MAC
r -t 0.089921243 -s 14 -d -1 -p message -e 32 -c 2 -a 0 -i 1 -k MAC
r -t 0.089921270 -s 34 -d -1 -p message -e 32 -c 2 -a 0 -i 1 -k MAC
r -t 0.089921270 -s 16 -d -1 -p message -e 32 -c 2 -a 0 -i 1 -k MAC
r -t 0.089921270 -s 0 -d -1 -p message -e 32 -c 2 -a 0 -i 1 -k MAC
r -t 0.089921270 -s 36 -d -1 -p message -e 32 -c 2 -a 0 -i 1 -k MAC
r -t 0.089921270 -s 6 -d -1 -p message -e 32 -c 2 -a 0 -i 1 -k MAC
r -t 0.089921270 -s 22 -d -1 -p message -e 32 -c 2 -a 0 -i 1 -k MAC
r -t 0.089921344 -s 33 -d -1 -p message -e 32 -c 2 -a 0 -i 1 -k MAC
r -t 0.089921344 -s 24 -d -1 -p message -e 32 -c 2 -a 0 -i 1 -k MAC
r -t 0.089921344 -s 37 -d -1 -p message -e 32 -c 2 -a 0 -i 1 -k MAC
r -t 0.089921344 -s 30 -d -1 -p message -e 32 -c 2 -a 0 -i 1 -k MAC
r -t 0.089921410 -s 15 -d -1 -p message -e 32 -c 2 -a 0 -i 1 -k MAC
r -t 0.089921430 -s 7 -d -1 -p message -e 32 -c 2 -a 0 -i 1 -k MAC
r -t 0.089921430 -s 23 -d -1 -p message -e 32 -c 2 -a 0 -i 1 -k MAC
r -t 0.089921450 -s 32 -d -1 -p message -e 32 -c 2 -a 0 -i 1 -k MAC
r -t 0.089921450 -s 38 -d -1 -p message -e 32 -c 2 -a 0 -i 1 -k MAC
r -t 0.089921488 -s 31 -d -1 -p message -e 32 -c 2 -a 0 -i 1 -k MAC
r -t 0.089921576 -s 39 -d -1 -p message -e 32 -c 2 -a 0 -i 1 -k MAC
r -t 0.089945910 -s 3 -d -1 -p message -e 32 -c 2 -a 0 -i 1 -k RTR
r -t 0.089945910 -s 10 -d -1 -p message -e 32 -c 2 -a 0 -i 1 -k RTR
r -t 0.089945910 -s 19 -d -1 -p message -e 32 -c 2 -a 0 -i 1 -k RTR
r -t 0.089945910 -s 12 -d -1 -p message -e 32 -c 2 -a 0 -i 1 -k RTR
r -t 0.089945979 -s 18 -d -1 -p message -e 32 -c 2 -a 0 -i 1 -k RTR
r -t 0.089945979 -s 2 -d -1 -p message -e 32 -c 2 -a 0 -i 1 -k RTR
r -t 0.089945979 -s 4 -d -1 -p message -e 32 -c 2 -a 0 -i 1 -k RTR
r -t 0.089945979 -s 20 -d -1 -p message -e 32 -c 2 -a 0 -i 1 -k RTR
r -t 0.089946076 -s 9 -d -1 -p message -e 32 -c 2 -a 0 -i 1 -k RTR
r -t 0.089946076 -s 27 -d -1 -p message -e 32 -c 2 -a 0 -i 1 -k RTR
r -t 0.089946076 -s 13 -d -1 -p message -e 32 -c 2 -a 0 -i 1 -k RTR
r -t 0.089946116 -s 26 -d -1 -p message -e 32 -c 2 -a 0 -i 1 -k RTR
r -t 0.089946116 -s 17 -d -1 -p message -e 32 -c 2 -a 0 -i 1 -k RTR
r -t 0.089946116 -s 1 -d -1 -p message -e 32 -c 2 -a 0 -i 1 -k RTR
r -t 0.089946116 -s 28 -d -1 -p message -e 32 -c 2 -a 0 -i 1 -k RTR
r -t 0.089946116 -s 5 -d -1 -p message -e 32 -c 2 -a 0 -i 1 -k RTR
r -t 0.089946116 -s 21 -d -1 -p message -e 32 -c 2 -a 0 -i 1 -k RTR
r -t 0.089946214 -s 25 -d -1 -p message -e 32 -c 2 -a 0 -i 1 -k RTR
r -t 0.089946214 -s 29 -d -1 -p message -e 32 -c 2 -a 0 -i 1 -k RTR
r -t 0.089946243 -s 8 -d -1 -p message -e 32 -c 2 -a 0 -i 1 -k RTR
r -t 0.089946243 -s 35 -d -1 -p message -e 32 -c 2 -a 0 -i 1 -k RTR
r -t 0.089946243 -s 14 -d -1 -p message -e 32 -c 2 -a 0 -i 1 -k RTR
r -t 0.089946270 -s 34 -d -1 -p message -e 32 -c 2 -a 0 -i 1 -k RTR
r -t 0.089946270 -s 16 -d -1 -p message -e 32 -c 2 -a 0 -i 1 -k RTR
r -t 0.089946270 -s 0 -d -1 -p message -e 32 -c 2 -a 0 -i 1 -k RTR
r -t 0.089946270 -s 36 -d -1 -p message -e 32 -c 2 -a 0 -i 1 -k RTR
r -t 0.089946270 -s 6 -d -1 -p message -e 32 -c 2 -a 0 -i 1 -k RTR
r -t 0.089946270 -s 22 -d -1 -p message -e 32 -c 2 -a 0 -i 1 -k RTR
r -t 0.089946344 -s 33 -d -1 -p message -e 32 -c 2 -a 0 -i 1 -k RTR
r -t 0.089946344 -s 24 -d -1 -p message -e 32 -c 2 -a 0 -i 1 -k RTR
r -t 0.089946344 -s 37 -d -1 -p message -e 32 -c 2 -a 0 -i 1 -k RTR
r -t 0.089946344 -s 30 -d -1 -p message -e 32 -c 2 -a 0 -i 1 -k RTR
r -t 0.089946410 -s 15 -d -1 -p message -e 32 -c 2 -a 0 -i 1 -k RTR
r -t 0.089946430 -s 7 -d -1 -p message -e 32 -c 2 -a 0 -i 1 -k RTR
r -t 0.089946430 -s 23 -d -1 -p message -e 32 -c 2 -a 0 -i 1 -k RTR
r -t 0.089946450 -s 32 -d -1 -p message -e 32 -c 2 -a 0 -i 1 -k RTR
r -t 0.089946450 -s 38 -d -1 -p message -e 32 -c 2 -a 0 -i 1 -k RTR
r -t 0.089946488 -s 31 -d -1 -p message -e 32 -c 2 -a 0 -i 1 -k RTR
r -t 0.089946576 -s 39 -d -1 -p message -e 32 -c 2 -a 0 -i 1 -k RTR
+ -t 0.183232075 -s 1 -d -1 -p message -e 32 -c 2 -a 0 -i 2 -k RTR 
- -t 0.183232075 -s 1 -d -1 -p message -e 32 -c 2 -a 0 -i 2 -k RTR
h -t 0.183232075 -s 1 -d -1 -p message -e 32 -c 2 -a 0 -i 2 -k RTR
+ -t 0.183527075 -s 1 -d -1 -p message -e 90 -c 2 -a 0 -i 2 -k MAC 
- -t 0.183527075 -s 1 -d -1 -p message -e 90 -c 2 -a 0 -i 2 -k MAC
h -t 0.183527075 -s 1 -d -1 -p message -e 90 -c 2 -a 0 -i 2 -k MAC
r -t 0.184247242 -s 0 -d -1 -p message -e 32 -c 2 -a 0 -i 2 -k MAC
r -t 0.184247242 -s 9 -d -1 -p message -e 32 -c 2 -a 0 -i 2 -k MAC
r -t 0.184247242 -s 2 -d -1 -p message -e 32 -c 2 -a 0 -i 2 -k MAC
r -t 0.184247311 -s 8 -d -1 -p message -e 32 -c 2 -a 0 -i 2 -k MAC
r -t 0.184247311 -s 10 -d -1 -p message -e 32 -c 2 -a 0 -i 2 -k MAC
r -t 0.184247408 -s 17 -d -1 -p message -e 32 -c 2 -a 0 -i 2 -k MAC
r -t 0.184247408 -s 3 -d -1 -p message -e 32 -c 2 -a 0 -i 2 -k MAC
r -t 0.184247448 -s 16 -d -1 -p message -e 32 -c 2 -a 0 -i 2 -k MAC
r -t 0.184247448 -s 18 -d -1 -p message -e 32 -c 2 -a 0 -i 2 -k MAC
r -t 0.184247448 -s 11 -d -1 -p message -e 32 -c 2 -a 0 -i 2 -k MAC
r -t 0.184247546 -s 19 -d -1 -p message -e 32 -c 2 -a 0 -i 2 -k MAC
r -t 0.184247575 -s 25 -d -1 -p message -e 32 -c 2 -a 0 -i 2 -k MAC
r -t 0.184247575 -s 4 -d -1 -p message -e 32 -c 2 -a 0 -i 2 -k MAC
r -t 0.184247602 -s 24 -d -1 -p message -e 32 -c 2 -a 0 -i 2 -k MAC
r -t 0.184247602 -s 26 -d -1 -p message -e 32 -c 2 -a 0 -i 2 -k MAC
r -t 0.184247602 -s 12 -d -1 -p message -e 32 -c 2 -a 0 -i 2 -k MAC
r -t 0.184247676 -s 27 -d -1 -p message -e 32 -c 2 -a 0 -i 2 -k MAC
r -t 0.184247676 -s 20 -d -1 -p message -e 32 -c 2 -a 0 -i 2 -k MAC
r -t 0.184247742 -s 33 -d -1 -p message -e 32 -c 2 -a 0 -i 2 -k MAC
r -t 0.184247742 -s 5 -d -1 -p message -e 32 -c 2 -a 0 -i 2 -k MAC
r -t 0.184247762 -s 32 -d -1 -p message -e 32 -c 2 -a 0 -i 2 -k MAC
r -t 0.184247762 -s 34 -d -1 -p message -e 32 -c 2 -a 0 -i 2 -k MAC
r -t 0.184247762 -s 13 -d -1 -p message -e 32 -c 2 -a 0 -i 2 -k MAC
r -t 0.184247782 -s 28 -d -1 -p message -e 32 -c 2 -a 0 -i 2 -k MAC
r -t 0.184247820 -s 35 -d -1 -p message -e 32 -c 2 -a 0 -i 2 -k MAC
r -t 0.184247820 -s 21 -d -1 -p message -e 32 -c 2 -a 0 -i 2 -k MAC
r -t 0.184247908 -s 36 -d -1 -p message -e 32 -c 2 -a 0 -i 2 -k MAC
r -t 0.184247908 -s 29 -d -1 -p message -e 32 -c 2 -a 0 -i 2 -k MAC
r -t 0.184247908 -s 6 -d -1 -p message -e 32 -c 2 -a 0 -i 2 -k MAC
r -t 0.184272242 -s 0 -d -1 -p message -e 32 -c 2 -a 0 -i 2 -k RTR
r -t 0.184272242 -s 9 -d -1 -p message -e 32 -c 2 -a 0 -i 2 -k RTR
r -t 0.184272242 -s 2 -d -1 -p message -e 32 -c 2 -a 0 -i 2 -k RTR
r -t 0.184272311 -s 8 -d -1 -p message -e 32 -c 2 -a 0 -i 2 -k RTR
r -t 0.184272311 -s 10 -d -1 -p message -e 32 -c 2 -a 0 -i 2 -k RTR
r -t 0.184272408 -s 17 -d -1 -p message -e 32 -c 2 -a 0 -i 2 -k RTR
r -t 0.184272408 -s 3 -d -1 -p message -e 32 -c 2 -a 0 -i 2 -k RTR
r -t 0.184272448 -s 16 -d -1 -p message -e 32 -c 2 -a 0 -i 2 -k RTR
r -t 0.184272448 -s 18 -d -1 -p message -e 32 -c 2 -a 0 -i 2 -k RTR
r -t 0.184272448 -s 11 -d -1 -p message -e 32 -c 2 -a 0 -i 2 -k RTR
r -t 0.184272546 -s 19 -d -1 -p message -e 32 -c 2 -a 0 -i 2 -k RTR
r -t 0.184272575 -s 25 -d -1 -p message -e 32 -c 2 -a 0 -i 2 -k RTR
r -t 0.184272575 -s 4 -d -1 -p message -e 32 -c 2 -a 0 -i 2 -k RTR
r -t 0.184272602 -s 24 -d -1 -p message -e 32 -c 2 -a 0 -i 2 -k RTR
r -t 0.184272602 -s 26 -d -1 -p message -e 32 -c 2 -a 0 -i 2 -k RTR
r -t 0.184272602 -s 12 -d -1 -p message -e 32 -c 2 -a 0 -i 2 -k RTR
r -t 0.184272676 -s 27 -d -1 -p message -e 32 -c 2 -a 0 -i 2 -k RTR
r -t 0.184272676 -s 20 -d -1 -p message -e 32 -c 2 -a 0 -i 2 -k RTR
r -t 0.184272742 -s 33 -d -1 -p message -e 32 -c 2 -a 0 -i 2 -k RTR
r -t 0.184272742 -s 5 -d -1 -p message -e 32 -c 2 -a 0 -i 2 -k RTR
r -t 0.184272762 -s 32 -d -1 -p message -e 32 -c 2 -a 0 -i 2 -k RTR
r -t 0.184272762 -s 34 -d -1 -p message -e 32 -c 2 -a 0 -i 2 -k RTR
r -t 0.184272762 -s 13 -d -1 -p message -e 32 -c 2 -a 0 -i 2 -k RTR
r -t 0.184272782 -s 28 -d -1 -p message -e 32 -c 2 -a 0 -i 2 -k RTR
r -t 0.184272820 -s 35 -d -1 -p message -e 32 -c 2 -a 0 -i 2 -k RTR
r -t 0.184272820 -s 21 -d -1 -p message -e 32 -c 2 -a 0 -i 2 -k RTR
r -t 0.184272908 -s 36 -d -1 -p message -e 32 -c 2 -a 0 -i 2 -k RTR
r -t 0.184272908 -s 29 -d -1 -p message -e 32 -c 2 -a 0 -i 2 -k RTR
r -t 0.184272908 -s 6 -d -1 -p message -e 32 -c 2 -a 0 -i 2 -k RTR
+ -t 0.193826106 -s 17 -d -1 -p message -e 32 -c 2 -a 0 -i 3 -k RTR 
- -t 0.193826106 -s 17 -d -1 -p message -e 32 -c 2 -a 0 -i 3 -k RTR
h -t 0.193826106 -s 17 -d -1 -p message -e 32 -c 2 -a 0 -i 3 -k RTR
+ -t 0.193981106 -s 17 -d -1 -p message -e 90 -c 2 -a 0 -i 3 -k MAC 
- -t 0.193981106 -s 17 -d -1 -p message -e 90 -c 2 -a 0 -i 3 -k MAC
h -t 0.193981106 -s 17 -d -1 -p message -e 90 -c 2 -a 0 -i 3 -k MAC
r -t 0.194701273 -s 9 -d -1 -p message -e 32 -c 2 -a 0 -i 3 -k MAC
r -t 0.194701273 -s 16 -d -1 -p message -e 32 -c 2 -a 0 -i 3 -k MAC
r -t 0.194701273 -s 25 -d -1 -p message -e 32 -c 2 -a 0 -i 3 -k MAC
r -t 0.194701273 -s 18 -d -1 -p message -e 32 -c 2 -a 0 -i 3 -k MAC
r -t 0.194701342 -s 24 -d -1 -p message -e 32 -c 2 -a 0 -i 3 -k MAC
r -t 0.194701342 -s 8 -d -1 -p message -e 32 -c 2 -a 0 -i 3 -k MAC
r -t 0.194701342 -s 10 -d -1 -p message -e 32 -c 2 -a 0 -i 3 -k MAC
r -t 0.194701342 -s 26 -d -1 -p message -e 32 -c 2 -a 0 -i 3 -k MAC
r -t 0.194701439 -s 1 -d -1 -p message -e 32 -c 2 -a 0 -i 3 -k MAC
r -t 0.194701439 -s 33 -d -1 -p message -e 32 -c 2 -a 0 -i 3 -k MAC
r -t 0.194701439 -s 19 -d -1 -p message -e 32 -c 2 -a 0 -i 3 -k MAC
r -t 0.194701479 -s 32 -d -1 -p message -e 32 -c 2 -a 0 -i 3 -k MAC
r -t 0.194701479 -s 0 -d -1 -p message -e 32 -c 2 -a 0 -i 3 -k MAC
r -t 0.194701479 -s 2 -d -1 -p message -e 32 -c 2 -a 0 -i 3 -k MAC
r -t 0.194701479 -s 34 -d -1 -p message -e 32 -c 2 -a 0 -i 3 -k MAC
r -t 0.194701479 -s 11 -d -1 -p message -e 32 -c 2 -a 0 -i 3 -k MAC
r -t 0.194701479 -s 27 -d -1 -p message -e 32 -c 2 -a 0 -i 3 -k MAC
r -t 0.194701577 -s 3 -d -1 -p message -e 32 -c 2 -a 0 -i 3 -k MAC
r -t 0.194701577 -s 35 -d -1 -p message -e 32 -c 2 -a 0 -i 3 -k MAC
r -t 0.194701606 -s 20 -d -1 -p message -e 32 -c 2 -a 0 -i 3 -k MAC
r -t 0.194701633 -s 12 -d -1 -p message -e 32 -c 2 -a 0 -i 3 -k MAC
r -t 0.194701633 -s 28 -d -1 -p message -e 32 -c 2 -a 0 -i 3 -k MAC
r -t 0.194701707 -s 4 -d -1 -p message -e 32 -c 2 -a 0 -i 3 -k MAC
r -t 0.194701707 -s 36 -d -1 -p message -e 32 -c 2 -a 0 -i 3 -k MAC
r -t 0.194701773 -s 21 -d -1 -p message -e 32 -c 2 -a 0 -i 3 -k MAC
r -t 0.194701793 -s 13 -d -1 -p message -e 32 -c 2 -a 0 -i 3 -k MAC
r -t 0.194701793 -s 29 -d -1 -p message -e 32 -c 2 -a 0 -i 3 -k MAC
r -t 0.194701851 -s 5 -d -1 -p message -e 32 -c 2 -a 0 -i 3 -k MAC
r -t 0.194701851 -s 37 -d -1 -p message -e 32 -c 2 -a 0 -i 3 -k MAC
r -t 0.194701939 -s 22 -d -1 -p message -e 32 -c 2 -a 0 -i 3 -k MAC
r -t 0.194726273 -s 9 -d -1 -p message -e 32 -c 2 -a 0 -i 3 -k RTR
r -t 0.194726273 -s 16 -d -1 -p message -e 32 -c 2 -a 0 -i 3 -k RTR
r -t 0.194726273 -s 25 -d -1 -p message -e 32 -c 2 -a 0 -i 3 -k RTR
r -t 0.194726273 -s 18 -d -1 -p message -e 32 -c 2 -a 0 -i 3 -k RTR
r -t 0.194726342 -s 24 -d -1 -p message -e 32 -c 2 -a 0 -i 3 -k RTR
r -t 0.194726342 -s 8 -d -1 -p message -e 32 -c 2 -a 0 -i 3 -k RTR
r -t 0.194726342 -s 10 -d -1 -p message -e 32 -c 2 -a 0 -i 3 -k RTR
r -t 0.194726342 -s 26 -d -1 -p message -e 32 -c 2 -a 0 -i 3 -k RTR
r -t 0.194726439 -s 1 -d -1 -p message -e 32 -c 2 -a 0 -i 3 -k RTR
r -t 0.194726439 -s 33 -d -1 -p message -e 32 -c 2 -a 0 -i 3 -k RTR
r -t 0.194726439 -s 19 -d -1 -p message -e 32 -c 2 -a 0 -i 3 -k RTR
r -t 0.194726479 -s 32 -d -1 -p message -e 32 -c 2 -a 0 -i 3 -k RTR
r -t 0.194726479 -s 0 -d -1 -p message -e 32 -c 2 -a 0 -i 3 -k RTR
r -t 0.194726479 -s 2 -d -1 -p message -e 32 -c 2 -a 0 -i 3 -k RTR
r -t 0.194726479 -s 34 -d -1 -p message -e 32 -c 2 -a 0 -i 3 -k RTR
r -t 0.194726479 -s 11 -d -1 -p message -e 32 -c 2 -a 0 -i 3 -k RTR
r -t 0.194726479 -s 27 -d -1 -p message -e 32 -c 2 -a 0 -i 3 -k RTR
r -t 0.194726577 -s 3 -d -1 -p message -e 32 -c 2 -a 0 -i 3 -k RTR
r -t 0.194726577 -s 35 -d -1 -p message -e 32 -c 2 -a 0 -i 3 -k RTR
r -t 0.194726606 -s 20 -d -1 -p message -e 32 -c 2 -a 0 -i 3 -k RTR
r -t 0.194726633 -s 12 -d -1 -p message -e 32 -c 2 -a 0 -i 3 -k RTR
r -t 0.194726633 -s 28 -d -1 -p message -e 32 -c 2 -a 0 -i 3 -k RTR
r -t 0.194726707 -s 4 -d -1 -p message -e 32 -c 2 -a 0 -i 3 -k RTR
r -t 0.194726707 -s 36 -d -1 -p message -e 32 -c 2 -a 0 -i 3 -k RTR
r -t 0.194726773 -s 21 -d -1 -p message -e 32 -c 2 -a 0 -i 3 -k RTR
r -t 0.194726793 -s 13 -d -1 -p message -e 32 -c 2 -a 0 -i 3 -k RTR
r -t 0.194726793 -s 29 -d -1 -p message -e 32 -c 2 -a 0 -i 3 -k RTR
r -t 0.194726851 -s 5 -d -1 -p message -e 32 -c 2 -a 0 -i 3 -k RTR
r -t 0.194726851 -s 37 -d -1 -p message -e 32 -c 2 -a 0 -i 3 -k RTR
r -t 0.194726939 -s 22 -d -1 -p message -e 32 -c 2 -a 0 -i 3 -k RTR
+ -t 0.220259086 -s 34 -d -1 -p message -e 32 -c 2 -a 0 -i 4 -k RTR 
- -t 0.220259086 -s 34 -d -1 -p message -e 32 -c 2 -a 0 -i 4 -k RTR
h -t 0.220259086 -s 34 -d -1 -p message -e 32 -c 2 -a 0 -i 4 -k RTR
+ -t 0.220634086 -s 34 -d -1 -p message -e 90 -c 2 -a 0 -i 4 -k MAC 
- -t 0.220634086 -s 34 -d -1 -p message -e 90 -c 2 -a 0 -i 4 -k MAC
h -t 0.220634086 -s 34 -d -1 -p message -e 90 -c 2 -a 0 -i 4 -k MAC
r -t 0.221354253 -s 26 -d -1 -p message -e 32 -c 2 -a 0 -i 4 -k MAC
r -t 0.221354253 -s 33 -d -1 -p message -e 32 -c 2 -a 0 -i 4 -k MAC
r -t 0.221354253 -s 35 -d -1 -p message -e 32 -c 2 -a 0 -i 4 -k MAC
r -t 0.221354322 -s 25 -d -1 -p message -e 32 -c 2 -a 0 -i 4 -k MAC
r -t 0.221354322 -s 27 -d -1 -p message -e 32 -c 2 -a 0 -i 4 -k MAC
r -t 0.221354420 -s 18 -d -1 -p message -e 32 -c 2 -a 0 -i 4 -k MAC
r -t 0.221354420 -s 32 -d -1 -p message -e 32 -c 2 -a 0 -i 4 -k MAC
r -t 0.221354420 -s 36 -d -1 -p message -e 32 -c 2 -a 0 -i 4 -k MAC
r -t 0.221354459 -s 17 -d -1 -p message -e 32 -c 2 -a 0 -i 4 -k MAC
r -t 0.221354459 -s 24 -d -1 -p message -e 32 -c 2 -a 0 -i 4 -k MAC
r -t 0.221354459 -s 19 -d -1 -p message -e 32 -c 2 -a 0 -i 4 -k MAC
r -t 0.221354459 -s 28 -d -1 -p message -e 32 -c 2 -a 0 -i 4 -k MAC
r -t 0.221354558 -s 16 -d -1 -p message -e 32 -c 2 -a 0 -i 4 -k MAC
r -t 0.221354558 -s 20 -d -1 -p message -e 32 -c 2 -a 0 -i 4 -k MAC
r -t 0.221354586 -s 10 -d -1 -p message -e 32 -c 2 -a 0 -i 4 -k MAC
r -t 0.221354586 -s 37 -d -1 -p message -e 32 -c 2 -a 0 -i 4 -k MAC
r -t 0.221354613 -s 9 -d -1 -p message -e 32 -c 2 -a 0 -i 4 -k MAC
r -t 0.221354613 -s 11 -d -1 -p message -e 32 -c 2 -a 0 -i 4 -k MAC
r -t 0.221354613 -s 29 -d -1 -p message -e 32 -c 2 -a 0 -i 4 -k MAC
r -t 0.221354687 -s 8 -d -1 -p message -e 32 -c 2 -a 0 -i 4 -k MAC
r -t 0.221354687 -s 12 -d -1 -p message -e 32 -c 2 -a 0 -i 4 -k MAC
r -t 0.221354687 -s 21 -d -1 -p message -e 32 -c 2 -a 0 -i 4 -k MAC
r -t 0.221354753 -s 2 -d -1 -p message -e 32 -c 2 -a 0 -i 4 -k MAC
r -t 0.221354753 -s 38 -d -1 -p message -e 32 -c 2 -a 0 -i 4 -k MAC
r -t 0.221354774 -s 1 -d -1 -p message -e 32 -c 2 -a 0 -i 4 -k MAC
r -t 0.221354774 -s 3 -d -1 -p message -e 32 -c 2 -a 0 -i 4 -k MAC
r -t 0.221354774 -s 30 -d -1 -p message -e 32 -c 2 -a 0 -i 4 -k MAC
r -t 0.221354794 -s 13 -d -1 -p message -e 32 -c 2 -a 0 -i 4 -k MAC
r -t 0.221354832 -s 0 -d -1 -p message -e 32 -c 2 -a 0 -i 4 -k MAC
r -t 0.221354832 -s 4 -d -1 -p message -e 32 -c 2 -a 0 -i 4 -k MAC
r -t 0.221354832 -s 22 -d -1 -p message -e 32 -c 2 -a 0 -i 4 -k MAC
r -t 0.221354920 -s 5 -d -1 -p message -e 32 -c 2 -a 0 -i 4 -k MAC
r -t 0.221354920 -s 14 -d -1 -p message -e 32 -c 2 -a 0 -i 4 -k MAC
r -t 0.221354920 -s 39 -d -1 -p message -e 32 -c 2 -a 0 -i 4 -k MAC
r -t 0.221379253 -s 26 -d -1 -p message -e 32 -c 2 -a 0 -i 4 -k RTR
r -t 0.221379253 -s 33 -d -1 -p message -e 32 -c 2 -a 0 -i 4 -k RTR
r -t 0.221379253 -s 35 -d -1 -p message -e 32 -c 2 -a 0 -i 4 -k RTR
r -t 0.221379322 -s 25 -d -1 -p message -e 32 -c 2 -a 0 -i 4 -k RTR
r -t 0.221379322 -s 27 -d -1 -p message -e 32 -c 2 -a 0 -i 4 -k RTR
r -t 0.221379420 -s 18 -d -1 -p message -e 32 -c 2 -a 0 -i 4 -k RTR
r -t 0.221379420 -s 32 -d -1 -p message -e 32 -c 2 -a 0 -i 4 -k RTR
r -t 0.221379420 -s 36 -d -1 -p message -e 32 -c 2 -a 0 -i 4 -k RTR
r -t 0.221379459 -s 17 -d -1 -p message -e 32 -c 2 -a 0 -i 4 -k RTR
r -t 0.221379459 -s 24 -d -1 -p message -e 32 -c 2 -a 0 -i 4 -k RTR
r -t 0.221379459 -s 19 -d -1 -p message -e 32 -c 2 -a 0 -i 4 -k RTR
r -t 0.221379459 -s 28 -d -1 -p message -e 32 -c 2 -a 0 -i 4 -k RTR
r -t 0.221379558 -s 16 -d -1 -p message -e 32 -c 2 -a 0 -i 4 -k RTR
r -t 0.221379558 -s 20 -d -1 -p message -e 32 -c 2 -a 0 -i 4 -k RTR
r -t 0.221379586 -s 10 -d -1 -p message -e 32 -c 2 -a 0 -i 4 -k RTR
r -t 0.221379586 -s 37 -d -1 -p message -e 32 -c 2 -a 0 -i 4 -k RTR
r -t 0.221379613 -s 9 -d -1 -p message -e 32 -c 2 -a 0 -i 4 -k RTR
r -t 0.221379613 -s 11 -d -1 -p message -e 32 -c 2 -a 0 -i 4 -k RTR
r -t 0.221379613 -s 29 -d -1 -p message -e 32 -c 2 -a 0 -i 4 -k RTR
r -t 0.221379687 -s 8 -d -1 -p message -e 32 -c 2 -a 0 -i 4 -k RTR
r -t 0.221379687 -s 12 -d -1 -p message -e 32 -c 2 -a 0 -i 4 -k RTR
r -t 0.221379687 -s 21 -d -1 -p message -e 32 -c 2 -a 0 -i 4 -k RTR
r -t 0.221379753 -s 2 -d -1 -p message -e 32 -c 2 -a 0 -i 4 -k RTR
r -t 0.221379753 -s 38 -d -1 -p message -e 32 -c 2 -a 0 -i 4 -k RTR
r -t 0.221379774 -s 1 -d -1 -p message -e 32 -c 2 -a 0 -i 4 -k RTR
r -t 0.221379774 -s 3 -d -1 -p message -e 32 -c 2 -a 0 -i 4 -k RTR
r -t 0.221379774 -s 30 -d -1 -p message -e 32 -c 2 -a 0 -i 4 -k RTR
r -t 0.221379794 -s 13 -d -1 -p message -e 32 -c 2 -a 0 -i 4 -k RTR
r -t 0.221379832 -s 0 -d -1 -p message -e 32 -c 2 -a 0 -i 4 -k RTR
r -t 0.221379832 -s 4 -d -1 -p message -e 32 -c 2 -a 0 -i 4 -k RTR
r -t 0.221379832 -s 22 -d -1 -p message -e 32 -c 2 -a 0 -i 4 -k RTR
r -t 0.221379920 -s 5 -d -1 -p message -e 32 -c 2 -a 0 -i 4 -k RTR
r -t 0.221379920 -s 14 -d -1 -p message -e 32 -c 2 -a 0 -i 4 -k RTR
r -t 0.221379920 -s 39 -d -1 -p message -e 32 -c 2 -a 0 -i 4 -k RTR
+ -t 0.229683837 -s 13 -d -1 -p message -e 32 -c 2 -a 0 -i 5 -k RTR 
- -t 0.229683837 -s 13 -d -1 -p message -e 32 -c 2 -a 0 -i 5 -k RTR
h -t 0.229683837 -s 13 -d -1 -p message -e 32 -c 2 -a 0 -i 5 -k RTR
+ -t 0.229998837 -s 13 -d -1 -p message -e 90 -c 2 -a 0 -i 5 -k MAC 
- -t 0.229998837 -s 13 -d -1 -p message -e 90 -c 2 -a 0 -i 5 -k MAC
h -t 0.229998837 -s 13 -d -1 -p message -e 90 -c 2 -a 0 -i 5 -k MAC
r -t 0.230719004 -s 5 -d -1 -p message -e 32 -c 2 -a 0 -i 5 -k MAC
r -t 0.230719004 -s 12 -d -1 -p message -e 32 -c 2 -a 0 -i 5 -k MAC
r -t 0.230719004 -s 21 -d -1 -p message -e 32 -c 2 -a 0 -i 5 -k MAC
r -t 0.230719004 -s 14 -d -1 -p message -e 32 -c 2 -a 0 -i 5 -k MAC
r -t 0.230719073 -s 20 -d -1 -p message -e 32 -c 2 -a 0 -i 5 -k MAC
r -t 0.230719073 -s 4 -d -1 -p message -e 32 -c 2 -a 0 -i 5 -k MAC
r -t 0.230719073 -s 6 -d -1 -p message -e 32 -c 2 -a 0 -i 5 -k MAC
r -t 0.230719073 -s 22 -d -1 -p message -e 32 -c 2 -a 0 -i 5 -k MAC
r -t 0.230719171 -s 11 -d -1 -p message -e 32 -c 2 -a 0 -i 5 -k MAC
r -t 0.230719171 -s 29 -d -1 -p message -e 32 -c 2 -a 0 -i 5 -k MAC
r -t 0.230719171 -s 15 -d -1 -p message -e 32 -c 2 -a 0 -i 5 -k MAC
r -t 0.230719210 -s 28 -d -1 -p message -e 32 -c 2 -a 0 -i 5 -k MAC
r -t 0.230719210 -s 19 -d -1 -p message -e 32 -c 2 -a 0 -i 5 -k MAC
r -t 0.230719210 -s 3 -d -1 -p message -e 32 -c 2 -a 0 -i 5 -k MAC
r -t 0.230719210 -s 30 -d -1 -p message -e 32 -c 2 -a 0 -i 5 -k MAC
r -t 0.230719210 -s 7 -d -1 -p message -e 32 -c 2 -a 0 -i 5 -k MAC
r -t 0.230719210 -s 23 -d -1 -p message -e 32 -c 2 -a 0 -i 5 -k MAC
r -t 0.230719309 -s 27 -d -1 -p message -e 32 -c 2 -a 0 -i 5 -k MAC
r -t 0.230719309 -s 31 -d -1 -p message -e 32 -c 2 -a 0 -i 5 -k MAC
r -t 0.230719337 -s 10 -d -1 -p message -e 32 -c 2 -a 0 -i 5 -k MAC
r -t 0.230719337 -s 37 -d -1 -p message -e 32 -c 2 -a 0 -i 5 -k MAC
r -t 0.230719364 -s 36 -d -1 -p message -e 32 -c 2 -a 0 -i 5 -k MAC
r -t 0.230719364 -s 18 -d -1 -p message -e 32 -c 2 -a 0 -i 5 -k MAC
r -t 0.230719364 -s 2 -d -1 -p message -e 32 -c 2 -a 0 -i 5 -k MAC
r -t 0.230719364 -s 38 -d -1 -p message -e 32 -c 2 -a 0 -i 5 -k MAC
r -t 0.230719438 -s 35 -d -1 -p message -e 32 -c 2 -a 0 -i 5 -k MAC
r -t 0.230719438 -s 26 -d -1 -p message -e 32 -c 2 -a 0 -i 5 -k MAC
r -t 0.230719438 -s 39 -d -1 -p message -e 32 -c 2 -a 0 -i 5 -k MAC
r -t 0.230719504 -s 9 -d -1 -p message -e 32 -c 2 -a 0 -i 5 -k MAC
r -t 0.230719525 -s 17 -d -1 -p message -e 32 -c 2 -a 0 -i 5 -k MAC
r -t 0.230719525 -s 1 -d -1 -p message -e 32 -c 2 -a 0 -i 5 -k MAC
r -t 0.230719545 -s 34 -d -1 -p message -e 32 -c 2 -a 0 -i 5 -k MAC
r -t 0.230719583 -s 25 -d -1 -p message -e 32 -c 2 -a 0 -i 5 -k MAC
r -t 0.230719671 -s 33 -d -1 -p message -e 32 -c 2 -a 0 -i 5 -k MAC
r -t 0.230719671 -s 8 -d -1 -p message -e 32 -c 2 -a 0 -i 5 -k MAC
r -t 0.230744004 -s 5 -d -1 -p message -e 32 -c 2 -a 0 -i 5 -k RTR
r -t 0.230744004 -s 12 -d -1 -p message -e 32 -c 2 -a 0 -i 5 -k RTR
r -t 0.230744004 -s 21 -d -1 -p message -e 32 -c 2 -a 0 -i 5 -k RTR
r -t 0.230744004 -s 14 -d -1 -p message -e 32 -c 2 -a 0 -i 5 -k RTR
r -t 0.230744073 -s 20 -d -1 -p message -e 32 -c 2 -a 0 -i 5 -k RTR
r -t 0.230744073 -s 4 -d -1 -p message -e 32 -c 2 -a 0 -i 5 -k RTR
r -t 0.230744073 -s 6 -d -1 -p message -e 32 -c 2 -a 0 -i 5 -k RTR
r -t 0.230744073 -s 22 -d -1 -p message -e 32 -c 2 -a 0 -i 5 -k RTR
r -t 0.230744171 -s 11 -d -1 -p message -e 32 -c 2 -a 0 -i 5 -k RTR
r -t 0.230744171 -s 29 -d -1 -p message -e 32 -c 2 -a 0 -i 5 -k RTR
r -t 0.230744171 -s 15 -d -1 -p message -e 32 -c 2 -a 0 -i 5 -k RTR
r -t 0.230744210 -s 28 -d -1 -p message -e 32 -c 2 -a 0 -i 5 -k RTR
r -t 0.230744210 -s 19 -d -1 -p message -e 32 -c 2 -a 0 -i 5 -k RTR
r -t 0.230744210 -s 3 -d -1 -p message -e 32 -c 2 -a 0 -i 5 -k RTR
r -t 0.230744210 -s 30 -d -1 -p message -e 32 -c 2 -a 0 -i 5 -k RTR
r -t 0.230744210 -s 7 -d -1 -p message -e 32 -c 2 -a 0 -i 5 -k RTR
r -t 0.230744210 -s 23 -d -1 -p message -e 32 -c 2 -a 0 -i 5 -k RTR
r -t 0.230744309 -s 27 -d -1 -p message -e 32 -c 2 -a 0 -i 5 -k RTR
r -t 0.230744309 -s 31 -d -1 -p message -e 32 -c 2 -a 0 -i 5 -k RTR
r -t 0.230744337 -s 10 -d -1 -p message -e 32 -c 2 -a 0 -i 5 -k RTR
r -t 0.230744337 -s 37 -d -1 -p message -e 32 -c 2 -a 0 -i 5 -k RTR
r -t 0.230744364 -s 36 -d -1 -p message -e 32 -c 2 -a 0 -i 5 -k RTR
r -t 0.230744364 -s 18 -d -1 -p message -e 32 -c 2 -a 0 -i 5 -k RTR