n -t * -s 0  -x 322 -y 425 -Z 0 -z 20  -v circle -c black
n -t * -s 1  -x 372 -y 425 -Z 0 -z 20  -v circle -c black
n -t * -s 2  -x 422 -y 425 -Z 0 -z 20  -v circle -c black
n -t * -s 3  -x 472 -y 425 -Z 0 -z 20  -v circle -c black
n -t * -s 4  -x 522 -y 425 -Z 0 -z 20  -v circle -c black
n -t * -s 5  -x 322 -y 375 -Z 0 -z 20  -v circle -c black
n -t * -s 6  -x 372 -y 375 -Z 0 -z 20  -v circle -c black
n -t * -s 7  -x 422 -y 375 -Z 0 -z 20  -v circle -c black
n -t * -s 8  -x 472 -y 375 -Z 0 -z 20  -v circle -c black
n -t * -s 9  -x 522 -y 375 -Z 0 -z 20  -v circle -c black
n -t * -s 10  -x 322 -y 325 -Z 0 -z 20  -v circle -c black
n -t * -s 11  -x 372 -y 325 -Z 0 -z 20  -v circle -c black
n -t * -s 12  -x 422 -y 325 -Z 0 -z 20  -v circle -c black
n -t * -s 13  -x 472 -y 325 -Z 0 -z 20  -v circle -c black
n -t * -s 14  -x 522 -y 325 -Z 0 -z 20  -v circle -c black
n -t * -s 15  -x 322 -y 275 -Z 0 -z 20  -v circle -c black
n -t * -s 16  -x 372 -y 275 -Z 0 -z 20  -v circle -c black
n -t * -s 17  -x 422 -y 275 -Z 0 -z 20  -v circle -c black
n -t * -s 18  -x 472 -y 275 -Z 0 -z 20  -v circle -c black
n -t * -s 19  -x 522 -y 275 -Z 0 -z 20  -v circle -c black
V -t * -v 1.0a5 -a 0
W -t * -x 622 -y 525
A -t * -n 1 -p 0 -o 0x7fffffff -c 30 -a 1
A -t * -h 1 -m 1073741823 -s 0
+ -t 0.030990201 -s 0 -d -1 -p message -e 32 -c 2 -a 0 -i 0 -k RTR 
- -t 0.030990201 -s 0 -d -1 -p message -e 32 -c 2 -a 0 -i 0 -k RTR
h -t 0.030990201 -s 0 -d -1 -p message -e 32 -c 2 -a 0 -i 0 -k RTR
+ -t 0.031305201 -s 0 -d -1 -p message -e 90 -c 2 -a 0 -i 0 -k MAC 
- -t 0.031305201 -s 0 -d -1 -p message -e 90 -c 2 -a 0 -i 0 -k MAC
h -t 0.031305201 -s 0 -d -1 -p message -e 90 -c 2 -a 0 -i 0 -k MAC
r -t 0.032025367 -s 5 -d -1 -p message -e 32 -c 2 -a 0 -i 0 -k MAC
r -t 0.032025367 -s 1 -d -1 -p message -e 32 -c 2 -a 0 -i 0 -k MAC
r -t 0.032025436 -s 6 -d -1 -p message -e 32 -c 2 -a 0 -i 0 -k MAC
r -t 0.032025534 -s 10 -d -1 -p message -e 32 -c 2 -a 0 -i 0 -k MAC
r -t 0.032025534 -s 2 -d -1 -p message -e 32 -c 2 -a 0 -i 0 -k MAC
r -t 0.032025573 -s 11 -d -1 -p message -e 32 -c 2 -a 0 -i 0 -k MAC
r -t 0.032025573 -s 7 -d -1 -p message -e 32 -c 2 -a 0 -i 0 -k MAC
r -t 0.032025672 -s 12 -d -1 -p message -e 32 -c 2 -a 0 -i 0 -k MAC
r -t 0.032025701 -s 15 -d -1 -p message -e 32 -c 2 -a 0 -i 0 -k MAC
r -t 0.032025701 -s 3 -d -1 -p message -e 32 -c 2 -a 0 -i 0 -k MAC
r -t 0.032025728 -s 16 -d -1 -p message -e 32 -c 2 -a 0 -i 0 -k MAC
r -t 0.032025728 -s 8 -d -1 -p message -e 32 -c 2 -a 0 -i 0 -k MAC
r -t 0.032025802 -s 17 -d -1 -p message -e 32 -c 2 -a 0 -i 0 -k MAC
r -t 0.032025802 -s 13 -d -1 -p message -e 32 -c 2 -a 0 -i 0 -k MAC
r -t 0.032025867 -s 4 -d -1 -p message -e 32 -c 2 -a 0 -i 0 -k MAC
r -t 0.032025888 -s 9 -d -1 -p message -e 32 -c 2 -a 0 -i 0 -k MAC
r -t 0.032025908 -s 18 -d -1 -p message -e 32 -c 2 -a 0 -i 0 -k MAC
r -t 0.032025946 -s 14 -d -1 -p message -e 32 -c 2 -a 0 -i 0 -k MAC
r -t 0.032026034 -s 19 -d -1 -p message -e 32 -c 2 -a 0 -i 0 -k MAC
r -t 0.032050367 -s 5 -d -1 -p message -e 32 -c 2 -a 0 -i 0 -k RTR
r -t 0.032050367 -s 1 -d -1 -p message -e 32 -c 2 -a 0 -i 0 -k RTR
r -t 0.032050436 -s 6 -d -1 -p message -e 32 -c 2 -a 0 -i 0 -k RTR
r -t 0.032050534 -s 10 -d -1 -p message -e 32 -c 2 -a 0 -i 0 -k RTR
r -t 0.032050534 -s 2 -d -1 -p message -e 32 -c 2 -a 0 -i 0 -k RTR
r -t 0.032050573 -s 11 -d -1 -p message -e 32 -c 2 -a 0 -i 0 -k RTR
r -t 0.032050573 -s 7 -d -1 -p message -e 32 -c 2 -a 0 -i 0 -k RTR
r -t 0.032050672 -s 12 -d -1 -p message -e 32 -c 2 -a 0 -i 0 -k RTR
r -t 0.032050701 -s 15 -d -1 -p message -e 32 -c 2 -a 0 -i 0 -k RTR
r -t 0.032050701 -s 3 -d -1 -p message -e 32 -c 2 -a 0 -i 0 -k RTR
r -t 0.032050728 -s 16 -d -1 -p message -e 32 -c 2 -a 0 -i 0 -k RTR
r -t 0.032050728 -s 8 -d -1 -p message -e 32 -c 2 -a 0 -i 0 -k RTR
r -t 0.032050802 -s 17 -d -1 -p message -e 32 -c 2 -a 0 -i 0 -k RTR
r -t 0.032050802 -s 13 -d -1 -p message -e 32 -c 2 -a 0 -i 0 -k RTR
r -t 0.032050867 -s 4 -d -1 -p message -e 32 -c 2 -a 0 -i 0 -k RTR
r -t 0.032050888 -s 9 -d -1 -p message -e 32 -c 2 -a 0 -i 0 -k RTR
r -t 0.032050908 -s 18 -d -1 -p message -e 32 -c 2 -a 0 -i 0 -k RTR
r -t 0.032050946 -s 14 -d -1 -p message -e 32 -c 2 -a 0 -i 0 -k RTR
r -t 0.032051034 -s 19 -d -1 -p message -e 32 -c 2 -a 0 -i 0 -k RTR
+ -t 0.092512184 -s 11 -d -1 -p message -e 32 -c 2 -a 0 -i 1 -k RTR 
- -t 0.092512184 -s 11 -d -1 -p message -e 32 -c 2 -a 0 -i 1 -k RTR
h -t 0.092512184 -s 11 -d -1 -p message -e 32 -c 2 -a 0 -i 1 -k RTR
+ -t 0.092987184 -s 11 -d -1 -p message -e 90 -c 2 -a 0 -i 1 -k MAC 
- -t 0.092987184 -s 11 -d -1 -p message -e 90 -c 2 -a 0 -i 1 -k MAC
h -t 0.092987184 -s 11 -d -1 -p message -e 90 -c 2 -a 0 -i 1 -k MAC
r -t 0.093707350 -s 6 -d -1 -p message -e 32 -c 2 -a 0 -i 1 -k MAC
r -t 0.093707350 -s 10 -d -1 -p message -e 32 -c 2 -a 0 -i 1 -k MAC
r -t 0.093707350 -s 16 -d -1 -p message -e 32 -c 2 -a 0 -i 1 -k MAC
r -t 0.093707350 -s 12 -d -1 -p message -e 32 -c 2 -a 0 -i 1 -k MAC
r -t 0.093707419 -s 15 -d -1 -p message -e 32 -c 2 -a 0 -i 1 -k MAC
r -t 0.093707419 -s 5 -d -1 -p message -e 32 -c 2 -a 0 -i 1 -k MAC
r -t 0.093707419 -s 7 -d -1 -p message -e 32 -c 2 -a 0 -i 1 -k MAC
r -t 0.093707419 -s 17 -d -1 -p message -e 32 -c 2 -a 0 -i 1 -k MAC
r -t 0.093707517 -s 1 -d -1 -p message -e 32 -c 2 -a 0 -i 1 -k MAC
r -t 0.093707517 -s 13 -d -1 -p message -e 32 -c 2 -a 0 -i 1 -k MAC
r -t 0.093707556 -s 0 -d -1 -p message -e 32 -c 2 -a 0 -i 1 -k MAC
r -t 0.093707556 -s 2 -d -1 -p message -e 32 -c 2 -a 0 -i 1 -k MAC
r -t 0.093707556 -s 8 -d -1 -p message -e 32 -c 2 -a 0 -i 1 -k MAC
r -t 0.093707556 -s 18 -d -1 -p message -e 32 -c 2 -a 0 -i 1 -k MAC
r -t 0.093707655 -s 3 -d -1 -p message -e 32 -c 2 -a 0 -i 1 -k MAC
r -t 0.093707684 -s 14 -d -1 -p message -e 32 -c 2 -a 0 -i 1 -k MAC
r -t 0.093707711 -s 9 -d -1 -p message -e 32 -c 2 -a 0 -i 1 -k MAC
r -t 0.093707711 -s 19 -d -1 -p message -e 32 -c 2 -a 0 -i 1 -k MAC
r -t 0.093707785 -s 4 -d -1 -p message -e 32 -c 2 -a 0 -i 1 -k MAC
r -t 0.093732350 -s 6 -d -1 -p message -e 32 -c 2 -a 0 -i 1 -k RTR
r -t 0.093732350 -s 10 -d -1 -p message -e 32 -c 2 -a 0 -i 1 -k RTR
r -t 0.093732350 -s 16 -d -1 -p message -e 32 -c 2 -a 0 -i 1 -k RTR
r -t 0.093732350 -s 12 -d -1 -p message -e 32 -c 2 -a 0 -i 1 -k RTR
r -t 0.093732419 -s 15 -d -1 -p message -e 32 -c 2 -a 0 -i 1 -k RTR
r -t 0.093732419 -s 5 -d -1 -p message -e 32 -c 2 -a 0 -i 1 -k RTR
r -t 0.093732419 -s 7 -d -1 -p message -e 32 -c 2 -a 0 -i 1 -k RTR
r -t 0.093732419 -s 17 -d -1 -p message -e 32 -c 2 -a 0 -i 1 -k RTR
r -t 0.093732517 -s 1 -d -1 -p message -e 32 -c 2 -a 0 -i 1 -k RTR
r -t 0.093732517 -s 13 -d -1 -p message -e 32 -c 2 -a 0 -i 1 -k RTR
r -t 0.093732556 -s 0 -d -1 -p message -e 32 -c 2 -a 0 -i 1 -k RTR
r -t 0.093732556 -s 2 -d -1 -p message -e 32 -c 2 -a 0 -i 1 -k RTR
r -t 0.093732556 -s 8 -d -1 -p message -e 32 -c 2 -a 0 -i 1 -k RTR
r -t 0.093732556 -s 18 -d -1 -p message -e 32 -c 2 -a 0 -i 1 -k RTR
r -t 0.093732655 -s 3 -d -1 -p message -e 32 -c 2 -a 0 -i 1 -k RTR
r -t 0.093732684 -s 14 -d -1 -p message -e 32 -c 2 -a 0 -i 1 -k RTR
r -t 0.093732711 -s 9 -d -1 -p message -e 32 -c 2 -a 0 -i 1 -k RTR
r -t 0.093732711 -s 19 -d -1 -p message -e 32 -c 2 -a 0 -i 1 -k RTR
r -t 0.093732785 -s 4 -d -1 -p message -e 32 -c 2 -a 0 -i 1 -k RTR
+ -t 0.178657599 -s 1 -d -1 -p message -e 32 -c 2 -a 0 -i 2 -k RTR 
- -t 0.178657599 -s 1 -d -1 -p message -e 32 -c 2 -a 0 -i 2 -k RTR
h -t 0.178657599 -s 1 -d -1 -p message -e 32 -c 2 -a 0 -i 2 -k RTR
+ -t 0.179032599 -s 1 -d -1 -p message -e 90 -c 2 -a 0 -i 2 -k MAC 
- -t 0.179032599 -s 1 -d -1 -p message -e 90 -c 2 -a 0 -i 2 -k MAC
h -t 0.179032599 -s 1 -d -1 -p message -e 90 -c 2 -a 0 -i 2 -k MAC
r -t 0.179752766 -s 0 -d -1 -p message -e 32 -c 2 -a 0 -i 2 -k MAC
r -t 0.179752766 -s 6 -d -1 -p message -e 32 -c 2 -a 0 -i 2 -k MAC
r -t 0.179752766 -s 2 -d -1 -p message -e 32 -c 2 -a 0 -i 2 -k MAC
r -t 0.179752835 -s 5 -d -1 -p message -e 32 -c 2 -a 0 -i 2 -k MAC
r -t 0.179752835 -s 7 -d -1 -p message -e 32 -c 2 -a 0 -i 2 -k MAC
r -t 0.179752932 -s 11 -d -1 -p message -e 32 -c 2 -a 0 -i 2 -k MAC
r -t 0.179752932 -s 3 -d -1 -p message -e 32 -c 2 -a 0 -i 2 -k MAC
r -t 0.179752972 -s 10 -d -1 -p message -e 32 -c 2 -a 0 -i 2 -k MAC
r -t 0.179752972 -s 12 -d -1 -p message -e 32 -c 2 -a 0 -i 2 -k MAC
r -t 0.179752972 -s 8 -d -1 -p message -e 32 -c 2 -a 0 -i 2 -k MAC
r -t 0.179753070 -s 13 -d -1 -p message -e 32 -c 2 -a 0 -i 2 -k MAC
r -t 0.179753099 -s 16 -d -1 -p message -e 32 -c 2 -a 0 -i 2 -k MAC
r -t 0.179753099 -s 4 -d -1 -p message -e 32 -c 2 -a 0 -i 2 -k MAC
r -t 0.179753126 -s 15 -d -1 -p message -e 32 -c 2 -a 0 -i 2 -k MAC
r -t 0.179753126 -s 17 -d -1 -p message -e 32 -c 2 -a 0 -i 2 -k MAC
r -t 0.179753126 -s 9 -d -1 -p message -e 32 -c 2 -a 0 -i 2 -k MAC
r -t 0.179753200 -s 18 -d -1 -p message -e 32 -c 2 -a 0 -i 2 -k MAC
r -t 0.179753200 -s 14 -d -1 -p message -e 32 -c 2 -a 0 -i 2 -k MAC
r -t 0.179753306 -s 19 -d -1 -p message -e 32 -c 2 -a 0 -i 2 -k MAC
r -t 0.179777766 -s 0 -d -1 -p message -e 32 -c 2 -a 0 -i 2 -k RTR
r -t 0.179777766 -s 6 -d -1 -p message -e 32 -c 2 -a 0 -i 2 -k RTR
r -t 0.179777766 -s 2 -d -1 -p message -e 32 -c 2 -a 0 -i 2 -k RTR
r -t 0.179777835 -s 5 -d -1 -p message -e 32 -c 2 -a 0 -i 2 -k RTR
r -t 0.179777835 -s 7 -d -1 -p message -e 32 -c 2 -a 0 -i 2 -k RTR
r -t 0.179777932 -s 11 -d -1 -p message -e 32 -c 2 -a 0 -i 2 -k RTR
r -t 0.179777932 -s 3 -d -1 -p message -e 32 -c 2 -a 0 -i 2 -k RTR
r -t 0.179777972 -s 10 -d -1 -p message -e 32 -c 2 -a 0 -i 2 -k RTR
r -t 0.179777972 -s 12 -d -1 -p message -e 32 -c 2 -a 0 -i 2 -k RTR
r -t 0.179777972 -s 8 -d -1 -p message -e 32 -c 2 -a 0 -i 2 -k RTR
r -t 0.179778070 -s 13 -d -1 -p message -e 32 -c 2 -a 0 -i 2 -k RTR
r -t 0.179778099 -s 16 -d -1 -p message -e 32 -c 2 -a 0 -i 2 -k RTR
r -t 0.179778099 -s 4 -d -1 -p message -e 32 -c 2 -a 0 -i 2 -k RTR
r -t 0.179778126 -s 15 -d -1 -p message -e 32 -c 2 -a 0 -i 2 -k RTR
r -t 0.179778126 -s 17 -d -1 -p message -e 32 -c 2 -a 0 -i 2 -k RTR
r -t 0.179778126 -s 9 -d -1 -p message -e 32 -c 2 -a 0 -i 2 -k RTR
r -t 0.179778200 -s 18 -d -1 -p message -e 32 -c 2 -a 0 -i 2 -k RTR
r -t 0.179778200 -s 14 -d -1 -p message -e 32 -c 2 -a 0 -i 2 -k RTR
r -t 0.179778306 -s 19 -d -1 -p message -e 32 -c 2 -a 0 -i 2 -k RTR
+ -t 0.197327164 -s 17 -d -1 -p message -e 32 -c 2 -a 0 -i 3 -k RTR 
- -t 0.197327164 -s 17 -d -1 -p message -e 32 -c 2 -a 0 -i 3 -k RTR
h -t 0.197327164 -s 17 -d -1 -p message -e 32 -c 2 -a 0 -i 3 -k RTR
+ -t 0.197682164 -s 17 -d -1 -p message -e 90 -c 2 -a 0 -i 3 -k MAC 
- -t 0.197682164 -s 17 -d -1 -p message -e 90 -c 2 -a 0 -i 3 -k MAC
h -t 0.197682164 -s 17 -d -1 -p message -e 90 -c 2 -a 0 -i 3 -k MAC
r -t 0.198402330 -s 12 -d -1 -p message -e 32 -c 2 -a 0 -i 3 -k MAC
r -t 0.198402330 -s 16 -d -1 -p message -e 32 -c 2 -a 0 -i 3 -k MAC
r -t 0.198402330 -s 18 -d -1 -p message -e 32 -c 2 -a 0 -i 3 -k MAC
r -t 0.198402399 -s 11 -d -1 -p message -e 32 -c 2 -a 0 -i 3 -k MAC
r -t 0.198402399 -s 13 -d -1 -p message -e 32 -c 2 -a 0 -i 3 -k MAC
r -t 0.198402497 -s 7 -d -1 -p message -e 32 -c 2 -a 0 -i 3 -k MAC
r -t 0.198402497 -s 15 -d -1 -p message -e 32 -c 2 -a 0 -i 3 -k MAC
r -t 0.198402497 -s 19 -d -1 -p message -e 32 -c 2 -a 0 -i 3 -k MAC
r -t 0.198402536 -s 6 -d -1 -p message -e 32 -c 2 -a 0 -i 3 -k MAC
r -t 0.198402536 -s 10 -d -1 -p message -e 32 -c 2 -a 0 -i 3 -k MAC
r -t 0.198402536 -s 8 -d -1 -p message -e 32 -c 2 -a 0 -i 3 -k MAC
r -t 0.198402536 -s 14 -d -1 -p message -e 32 -c 2 -a 0 -i 3 -k MAC
r -t 0.198402635 -s 5 -d -1 -p message -e 32 -c 2 -a 0 -i 3 -k MAC
r -t 0.198402635 -s 9 -d -1 -p message -e 32 -c 2 -a 0 -i 3 -k MAC
r -t 0.198402664 -s 2 -d -1 -p message -e 32 -c 2 -a 0 -i 3 -k MAC
r -t 0.198402691 -s 1 -d -1 -p message -e 32 -c 2 -a 0 -i 3 -k MAC
r -t 0.198402691 -s 3 -d -1 -p message -e 32 -c 2 -a 0 -i 3 -k MAC
r -t 0.198402765 -s 0 -d -1 -p message -e 32 -c 2 -a 0 -i 3 -k MAC
r -t 0.198402765 -s 4 -d -1 -p message -e 32 -c 2 -a 0 -i 3 -k MAC
r -t 0.198427330 -s 12 -d -1 -p message -e 32 -c 2 -a 0 -i 3 -k RTR
r -t 0.198427330 -s 16 -d -1 -p message -e 32 -c 2 -a 0 -i 3 -k RTR
r -t 0.198427330 -s 18 -d -1 -p message -e 32 -c 2 -a 0 -i 3 -k RTR
r -t 0.198427399 -s 11 -d -1 -p message -e 32 -c 2 -a 0 -i 3 -k RTR
r -t 0.198427399 -s 13 -d -1 -p message -e 32 -c 2 -a 0 -i 3 -k RTR
r -t 0.198427497 -s 7 -d -1 -p message -e 32 -c 2 -a 0 -i 3 -k RTR
r -t 0.198427497 -s 15 -d -1 -p message -e 32 -c 2 -a 0 -i 3 -k RTR
r -t 0.198427497 -s 19 -d -1 -p message -e 32 -c 2 -a 0 -i 3 -k RTR
r -t 0.198427536 -s 6 -d -1 -p message -e 32 -c 2 -a 0 -i 3 -k RTR
r -t 0.198427536 -s 10 -d -1 -p message -e 32 -c 2 -a 0 -i 3 -k RTR
r -t 0.198427536 -s 8 -d -1 -p message -e 32 -c 2 -a 0 -i 3 -k RTR
r -t 0.198427536 -s 14 -d -1 -p message -e 32 -c 2 -a 0 -i 3 -k RTR
r -t 0.198427635 -s 5 -d -1 -p message -e 32 -c 2 -a 0 -i 3 -k RTR
r -t 0.198427635 -s 9 -d -1 -p message -e 32 -c 2 -a 0 -i 3 -k RTR
r -t 0.198427664 -s 2 -d -1 -p message -e 32 -c 2 -a 0 -i 3 -k RTR
r -t 0.198427691 -s 1 -d -1 -p message -e 32 -c 2 -a 0 -i 3 -k RTR
r -t 0.198427691 -s 3 -d -1 -p message -e 32 -c 2 -a 0 -i 3 -k RTR
r -t 0.198427765 -s 0 -d -1 -p message -e 32 -c 2 -a 0 -i 3 -k RTR
r -t 0.198427765 -s 4 -d -1 -p message -e 32 -c 2 -a 0 -i 3 -k RTR
+ -t 0.229490150 -s 13 -d -1 -p message -e 32 -c 2 -a 0 -i 4 -k RTR 
- -t 0.229490150 -s 13 -d -1 -p message -e 32 -c 2 -a 0 -i 4 -k RTR
h -t 0.229490150 -s 13 -d -1 -p message -e 32 -c 2 -a 0 -i 4 -k RTR
+ -t 0.229785150 -s 13 -d -1 -p message -e 90 -c 2 -a 0 -i 4 -k MAC 
- -t 0.229785150 -s 13 -d -1 -p message -e 90 -c 2 -a 0 -i 4 -k MAC
h -t 0.229785150 -s 13 -d -1 -p message -e 90 -c 2 -a 0 -i 4 -k MAC
r -t 0.230505316 -s 8 -d -1 -p message -e 32 -c 2 -a 0 -i 4 -k MAC
r -t 0.230505316 -s 12 -d -1 -p message -e 32 -c 2 -a 0 -i 4 -k MAC
r -t 0.230505316 -s 18 -d -1 -p message -e 32 -c 2 -a 0 -i 4 -k MAC
r -t 0.230505316 -s 14 -d -1 -p message -e 32 -c 2 -a 0 -i 4 -k MAC
r -t 0.230505385 -s 17 -d -1 -p message -e 32 -c 2 -a 0 -i 4 -k MAC
r -t 0.230505385 -s 7 -d -1 -p message -e 32 -c 2 -a 0 -i 4 -k MAC
r -t 0.230505385 -s 9 -d -1 -p message -e 32 -c 2 -a 0 -i 4 -k MAC
r -t 0.230505385 -s 19 -d -1 -p message -e 32 -c 2 -a 0 -i 4 -k MAC
r -t 0.230505483 -s 3 -d -1 -p message -e 32 -c 2 -a 0 -i 4 -k MAC
r -t 0.230505483 -s 11 -d -1 -p message -e 32 -c 2 -a 0 -i 4 -k MAC
r -t 0.230505522 -s 2 -d -1 -p message -e 32 -c 2 -a 0 -i 4 -k MAC
r -t 0.230505522 -s 16 -d -1 -p message -e 32 -c 2 -a 0 -i 4 -k MAC
r -t 0.230505522 -s 6 -d -1 -p message -e 32 -c 2 -a 0 -i 4 -k MAC
r -t 0.230505522 -s 4 -d -1 -p message -e 32 -c 2 -a 0 -i 4 -k MAC
r -t 0.230505621 -s 1 -d -1 -p message -e 32 -c 2 -a 0 -i 4 -k MAC
r -t 0.230505650 -s 10 -d -1 -p message -e 32 -c 2 -a 0 -i 4 -k MAC
r -t 0.230505677 -s 15 -d -1 -p message -e 32 -c 2 -a 0 -i 4 -k MAC
r -t 0.230505677 -s 5 -d -1 -p message -e 32 -c 2 -a 0 -i 4 -k MAC
r -t 0.230505751 -s 0 -d -1 -p message -e 32 -c 2 -a 0 -i 4 -k MAC
r -t 0.230530316 -s 8 -d -1 -p message -e 32 -c 2 -a 0 -i 4 -k RTR
r -t 0.230530316 -s 12 -d -1 -p message -e 32 -c 2 -a 0 -i 4 -k RTR
r -t 0.230530316 -s 18 -d -1 -p message -e 32 -c 2 -a 0 -i 4 -k RTR
r -t 0.230530316 -s 14 -d -1 -p message -e 32 -c 2 -a 0 -i 4 -k RTR
r -t 0.230530385 -s 17 -d -1 -p message -e 32 -c 2 -a 0 -i 4 -k RTR
r -t 0.230530385 -s 7 -d -1 -p message -e 32 -c 2 -a 0 -i 4 -k RTR
r -t 0.230530385 -s 9 -d -1 -p message -e 32 -c 2 -a 0 -i 4 -k RTR
r -t 0.230530385 -s 19 -d -1 -p message -e 32 -c 2 -a 0 -i 4 -k RTR
r -t 0.230530483 -s 3 -d -1 -p message -e 32 -c 2 -a 0 -i 4 -k RTR
r -t 0.230530483 -s 11 -d -1 -p message -e 32 -c 2 -a 0 -i 4 -k RTR
r -t 0.230530522 -s 2 -d -1 -p message -e 32 -c 2 -a 0 -i 4 -k RTR
r -t 0.230530522 -s 16 -d -1 -p message -e 32 -c 2 -a 0 -i 4 -k RTR
r -t 0.230530522 -s 6 -d -1 -p message -e 32 -c 2 -a 0 -i 4 -k RTR
r -t 0.230530522 -s 4 -d -1 -p message -e 32 -c 2 -a 0 -i 4 -k RTR
r -t 0.230530621 -s 1 -d -1 -p message -e 32 -c 2 -a 0 -i 4 -k RTR
r -t 0.230530650 -s 10 -d -1 -p message -e 32 -c 2 -a 0 -i 4 -k RTR
r -t 0.230530677 -s 15 -d -1 -p message -e 32 -c 2 -a 0 -i 4 -k RTR
r -t 0.230530677 -s 5 -d -1 -p message -e 32 -c 2 -a 0 -i 4 -k RTR
r -t 0.230530751 -s 0 -d -1 -p message -e 32 -c 2 -a 0 -i 4 -k RTR
+ -t 0.329411126 -s 10 -d -1 -p message -e 32 -c 2 -a 0 -i 5 -k RTR 
- -t 0.329411126 -s 10 -d -1 -p message -e 32 -c 2 -a 0 -i 5 -k RTR
h -t 0.329411126 -s 10 -d -1 -p message -e 32 -c 2 -a 0 -i 5 -k RTR
+ -t 0.329606126 -s 10 -d -1 -p message -e 90 -c 2 -a 0 -i 5 -k MAC 
- -t 0.329606126 -s 10 -d -1 -p message -e 90 -c 2 -a 0 -i 5 -k MAC
h -t 0.329606126 -s 10 -d -1 -p message -e 90 -c 2 -a 0 -i 5 -k MAC
r -t 0.330326293 -s 5 -d -1 -p message -e 32 -c 2 -a 0 -i 5 -k MAC
r -t 0.330326293 -s 15 -d -1 -p message -e 32 -c 2 -a 0 -i 5 -k MAC
r -t 0.330326293 -s 11 -d -1 -p message -e 32 -c 2 -a 0 -i 5 -k MAC
r -t 0.330326362 -s 6 -d -1 -p message -e 32 -c 2 -a 0 -i 5 -k MAC
r -t 0.330326362 -s 16 -d -1 -p message -e 32 -c 2 -a 0 -i 5 -k MAC
r -t 0.330326460 -s 0 -d -1 -p message -e 32 -c 2 -a 0 -i 5 -k MAC
r -t 0.330326460 -s 12 -d -1 -p message -e 32 -c 2 -a 0 -i 5 -k MAC
r -t 0.330326499 -s 1 -d -1 -p message -e 32 -c 2 -a 0 -i 5 -k MAC
r -t 0.330326499 -s 7 -d -1 -p message -e 32 -c 2 -a 0 -i 5 -k MAC
r -t 0.330326499 -s 17 -d -1 -p message -e 32 -c 2 -a 0 -i 5 -k MAC
r -t 0.330326598 -s 2 -d -1 -p message -e 32 -c 2 -a 0 -i 5 -k MAC
r -t 0.330326626 -s 13 -d -1 -p message -e 32 -c 2 -a 0 -i 5 -k MAC
r -t 0.330326653 -s 8 -d -1 -p message -e 32 -c 2 -a 0 -i 5 -k MAC
r -t 0.330326653 -s 18 -d -1 -p message -e 32 -c 2 -a 0 -i 5 -k MAC
r -t 0.330326727 -s 3 -d -1 -p message -e 32 -c 2 -a 0 -i 5 -k MAC
r -t 0.330326793 -s 14 -d -1 -p message -e 32 -c 2 -a 0 -i 5 -k MAC
r -t 0.330326814 -s 9 -d -1 -p message -e 32 -c 2 -a 0 -i 5 -k MAC
r -t 0.330326814 -s 19 -d -1 -p message -e 32 -c 2 -a 0 -i 5 -k MAC
r -t 0.330326872 -s 4 -d -1 -p message -e 32 -c 2 -a 0 -i 5 -k MAC
r -t 0.330351293 -s 5 -d -1 -p message -e 32 -c 2 -a 0 -i 5 -k RTR
r -t 0.330351293 -s 15 -d -1 -p message -e 32 -c 2 -a 0 -i 5 -k RTR
r -t 0.330351293 -s 11 -d -1 -p message -e 32 -c 2 -a 0 -i 5 -k RTR
r -t 0.330351362 -s 6 -d -1 -p message -e 32 -c 2 -a 0 -i 5 -k RTR
r -t 0.330351362 -s 16 -d -1 -p message -e 32 -c 2 -a 0 -i 5 -k RTR
r -t 0.330351460 -s 0 -d -1 -p message -e 32 -c 2 -a 0 -i 5 -k RTR
r -t 0.330351460 -s 12 -d -1 -p message -e 32 -c 2 -a 0 -i 5 -k RTR
r -t 0.330351499 -s 1 -d -1 -p message -e 32 -c 2 -a 0 -i 5 -k RTR
r -t 0.330351499 -s 7 -d -1 -p message -e 32 -c 2 -a 0 -i 5 -k RTR
r -t 0.330351499 -s 17 -d -1 -p message -e 32 -c 2 -a 0 -i 5 -k RTR
r -t 0.330351598 -s 2 -d -1 -p message -e 32 -c 2 -a 0 -i 5 -k RTR
r -t 0.330351626 -s 13 -d -1 -p message -e 32 -c 2 -a 0 -i 5 -k RTR
r -t 0.330351653 -s 8 -d -1 -p message -e 32 -c 2 -a 0 -i 5 -k RTR
r -t 0.330351653 -s 18 -d -1 -p message -e 32 -c 2 -a 0 -i 5 -k RTR
r -t 0.330351727 -s 3 -d -1 -p message -e 32 -c 2 -a 0 -i 5 -k RTR
r -t 0.330351793 -s 14 -d -1 -p message -e 32 -c 2 -a 0 -i 5 -k RTR
r -t 0.330351814 -s 9 -d -1 -p message -e 32 -c 2 -a 0 -i 5 -k RTR
r -t 0.330351814 -s 19 -d -1 -p message -e 32 -c 2 -a 0 -i 5 -k RTR
r -t 0.330351872 -s 4 -d -1 -p message -e 32 -c 2 -a 0 -i 5 -k RTR
+ -t 0.352967135 -s 16 -d -1 -p message -e 32 -c 2 -a 0 -i 6 -k RTR 
- -t 0.352967135 -s 16 -d -1 -p message -e 32 -c 2 -a 0 -i 6 -k RTR
h -t 0.352967135 -s 16 -d -1 -p message -e 32 -c 2 -a 0 -i 6 -k RTR
+ -t 0.353222135 -s 16 -d -1 -p message -e 90 -c 2 -a 0 -i 6 -k MAC 
- -t 0.353222135 -s 16 -d -1 -p message -e 90 -c 2 -a 0 -i 6 -k MAC
h -t 0.353222135 -s 16 -d -1 -p message -e 90 -c 2 -a 0 -i 6 -k MAC
r -t 0.353942302 -s 11 -d -1 -p message -e 32 -c 2 -a 0 -i 6 -k MAC
r -t 0.353942302 -s 15 -d -1 -p message -e 32 -c 2 -a 0 -i 6 -k MAC
r -t 0.353942302 -s 17 -d -1 -p message -e 32 -c 2 -a 0 -i 6 -k MAC
r -t 0.353942371 -s 10 -d -1 -p message -e 32 -c 2 -a 0 -i 6 -k MAC
r -t 0.353942371 -s 12 -d -1 -p message -e 32 -c 2 -a 0 -i 6 -k MAC
r -t 0.353942469 -s 6 -d -1 -p message -e 32 -c 2 -a 0 -i 6 -k MAC
r -t 0.353942469 -s 18 -d -1 -p message -e 32 -c 2 -a 0 -i 6 -k MAC
r -t 0.353942508 -s 5 -d -1 -p message -e 32 -c 2 -a 0 -i 6 -k MAC
r -t 0.353942508 -s 7 -d -1 -p message -e 32 -c 2 -a 0 -i 6 -k MAC
r -t 0.353942508 -s 13 -d -1 -p message -e 32 -c 2 -a 0 -i 6 -k MAC
r -t 0.353942607 -s 8 -d -1 -p message -e 32 -c 2 -a 0 -i 6 -k MAC
r -t 0.353942635 -s 1 -d -1 -p message -e 32 -c 2 -a 0 -i 6 -k MAC
r -t 0.353942635 -s 19 -d -1 -p message -e 32 -c 2 -a 0 -i 6 -k MAC
r -t 0.353942662 -s 0 -d -1 -p message -e 32 -c 2 -a 0 -i 6 -k MAC
r -t 0.353942662 -s 2 -d -1 -p message -e 32 -c 2 -a 0 -i 6 -k MAC
r -t 0.353942662 -s 14 -d -1 -p message -e 32 -c 2 -a 0 -i 6 -k MAC
r -t 0.353942736 -s 3 -d -1 -p message -e 32 -c 2 -a 0 -i 6 -k MAC
r -t 0.353942736 -s 9 -d -1 -p message -e 32 -c 2 -a 0 -i 6 -k MAC
r -t 0.353942842 -s 4 -d -1 -p message -e 32 -c 2 -a 0 -i 6 -k MAC
r -t 0.353967302 -s 11 -d -1 -p message -e 32 -c 2 -a 0 -i 6 -k RTR
r -t 0.353967302 -s 15 -d -1 -p message -e 32 -c 2 -a 0 -i 6 -k RTR
r -t 0.353967302 -s 17 -d -1 -p message -e 32 -c 2 -a 0 -i 6 -k RTR
r -t 0.353967371 -s 10 -d -1 -p message -e 32 -c 2 -a 0 -i 6 -k RTR
r -t 0.353967371 -s 12 -d -1 -p message -e 32 -c 2 -a 0 -i 6 -k RTR
r -t 0.353967469 -s 6 -d -1 -p message -e 32 -c 2 -a 0 -i 6 -k RTR
r -t 0.353967469 -s 18 -d -1 -p message -e 32 -c 2 -a 0 -i 6 -k RTR
r -t 0.353967508 -s 5 -d -1 -p message -e 32 -c 2 -a 0 -i 6 -k RTR
r -t 0.353967508 -s 7 -d -1 -p message -e 32 -c 2 -a 0 -i 6 -k RTR
r -t 0.353967508 -s 13 -d -1 -p message -e 32 -c 2 -a 0 -i 6 -k RTR
r -t 0.353967607 -s 8 -d -1 -p message -e 32 -c 2 -a 0 -i 6 -k RTR
r -t 0.353967635 -s 1 -d -1 -p message -e 32 -c 2 -a 0 -i 6 -k RTR
r -t 0.353967635 -s 19 -d -1 -p message -e 32 -c 2 -a 0 -i 6 -k RTR
r -t 0.353967662 -s 0 -d -1 -p message -e 32 -c 2 -a 0 -i 6 -k RTR
r -t 0.353967662 -s 2 -d -1 -p message -e 32 -c 2 -a 0 -i 6 -k RTR
r -t 0.353967662 -s 14 -d -1 -p message -e 32 -c 2 -a 0 -i 6 -k RTR
r -t 0.353967736 -s 3 -d -1 -p message -e 32 -c 2 -a 0 -i 6 -k RTR
r -t 0.353967736 -s 9 -d -1 -p message -e 32 -c 2 -a 0 -i 6 -k RTR
r -t 0.353967842 -s 4 -d -1 -p message -e 32 -c 2 -a 0 -i 6 -k RTR
+ -t 0.476190236 -s 6 -d -1 -p message -e 32 -c 2 -a 0 -i 7 -k RTR 
- -t 0.476190236 -s 6 -d -1 -p message -e 32 -c 2 -a 0 -i 7 -k RTR
h -t 0.476190236 -s 6 -d -1 -p message -e 32 -c 2 -a 0 -i 7 -k RTR
+ -t 0.476485236 -s 6 -d -1 -p message -e 90 -c 2 -a 0 -i 7 -k MAC 
- -t 0.476485236 -s 6 -d -1 -p message -e 90 -c 2 -a 0 -i 7 -k MAC
h -t 0.476485236 -s 6 -d -1 -p message -e 90 -c 2 -a 0 -i 7 -k MAC
r -t 0.477205403 -s 1 -d -1 -p message -e 32 -c 2 -a 0 -i 7 -k MAC
r -t 0.477205403 -s 5 -d -1 -p message -e 32 -c 2 -a 0 -i 7 -k MAC
r -t 0.477205403 -s 11 -d -1 -p message -e 32 -c 2 -a 0 -i 7 -k MAC
r -t 0.477205403 -s 7 -d -1 -p message -e 32 -c 2 -a 0 -i 7 -k MAC
r -t 0.477205472 -s 10 -d -1 -p message -e 32 -c 2 -a 0 -i 7 -k MAC
r -t 0.477205472 -s 0 -d -1 -p message -e 32 -c 2 -a 0 -i 7 -k MAC
r -t 0.477205472 -s 2 -d -1 -p message -e 32 -c 2 -a 0 -i 7 -k MAC
r -t 0.477205472 -s 12 -d -1 -p message -e 32 -c 2 -a 0 -i 7 -k MAC
r -t 0.477205569 -s 16 -d -1 -p message -e 32 -c 2 -a 0 -i 7 -k MAC
r -t 0.477205569 -s 8 -d -1 -p message -e 32 -c 2 -a 0 -i 7 -k MAC
r -t 0.477205609 -s 15 -d -1 -p message -e 32 -c 2 -a 0 -i 7 -k MAC
r -t 0.477205609 -s 17 -d -1 -p message -e 32 -c 2 -a 0 -i 7 -k MAC
r -t 0.477205609 -s 3 -d -1 -p message -e 32 -c 2 -a 0 -i 7 -k MAC
r -t 0.477205609 -s 13 -d -1 -p message -e 32 -c 2 -a 0 -i 7 -k MAC
r -t 0.477205707 -s 18 -d -1 -p message -e 32 -c 2 -a 0 -i 7 -k MAC
r -t 0.477205736 -s 9 -d -1 -p message -e 32 -c 2 -a 0 -i 7 -k MAC
r -t 0.477205763 -s 4 -d -1 -p message -e 32 -c 2 -a 0 -i 7 -k MAC
r -t 0.477205763 -s 14 -d -1 -p message -e 32 -c 2 -a 0 -i 7 -k MAC
r -t 0.477205837 -s 19 -d -1 -p message -e 32 -c 2 -a 0 -i 7 -k MAC
r -t 0.477230403 -s 1 -d -1 -p message -e 32 -c 2 -a 0 -i 7 -k RTR
r -t 0.477230403 -s 5 -d -1 -p message -e 32 -c 2 -a 0 -i 7 -k RTR
r -t 0.477230403 -s 11 -d -1 -p message -e 32 -c 2 -a 0 -i 7 -k RTR
r -t 0.477230403 -s 7 -d -1 -p message -e 32 -c 2 -a 0 -i 7 -k RTR
r -t 0.477230472 -s 10 -d -1 -p message -e 32 -c 2 -a 0 -i 7 -k RTR
r -t 0.477230472 -s 0 -d -1 -p message -e 32 -c 2 -a 0 -i 7 -k RTR
r -t 0.477230472 -s 2 -d -1 -p message -e 32 -c 2 -a 0 -i 7 -k RTR
r -t 0.477230472 -s 12 -d -1 -p message -e 32 -c 2 -a 0 -i 7 -k RTR
r -t 0.477230569 -s 16 -d -1 -p message -e 32 -c 2 -a 0 -i 7 -k RTR
r -t 0.477230569 -s 8 -d -1 -p message -e 32 -c 2 -a 0 -i 7 -k RTR
r -t 0.477230609 -s 15 -d -1 -p message -e 32 -c 2 -a 0 -i 7 -k RTR
r -t 0.477230609 -s 17 -d -1 -p message -e 32 -c 2 -a 0 -i 7 -k RTR
r -t 0.477230609 -s 3 -d -1 -p message -e 32 -c 2 -a 0 -i 7 -k RTR
r -t 0.477230609 -s 13 -d -1 -p message -e 32 -c 2 -a 0 -i 7 -k RTR
r -t 0.477230707 -s 18 -d -1 -p message -e 32 -c 2 -a 0 -i 7 -k RTR
r -t 0.477230736 -s 9 -d -1 -p message -e 32 -c 2 -a 0 -i 7 -k RTR
r -t 0.477230763 -s 4 -d -1 -p message -e 32 -c 2 -a 0 -i 7 -k RTR
r -t 0.477230763 -s 14 -d -1 -p message -e 32 -c 2 -a 0 -i 7 -k RTR
r -t 0.477230837 -s 19 -d -1 -p message -e 32 -c 2 -a 0 -i 7 -k RTR
+ -t 0.623706512 -s 8 -d -1 -p message -e 32 -c 2 -a 0 -i 8 -k RTR 
- -t 0.623706512 -s 8 -d -1 -p message -e 32 -c 2 -a 0 -i 8 -k RTR
h -t 0.623706512 -s 8 -d -1 -p message -e 32 -c 2 -a 0 -i 8 -k RTR
+ -t 0.623861512 -s 8 -d -1 -p message -e 90 -c 2 -a 0 -i 8 -k MAC 
- -t 0.623861512 -s 8 -d -1 -p message -e 90 -c 2 -a 0 -i 8 -k MAC
h -t 0.623861512 -s 8 -d -1 -p message -e 90 -c 2 -a 0 -i 8 -k MAC
r -t 0.624581679 -s 3 -d -1 -p message -e 32 -c 2 -a 0 -i 8 -k MAC
r -t 0.624581679 -s 7 -d -1 -p message -e 32 -c 2 -a 0 -i 8 -k MAC
r -t 0.624581679 -s 13 -d -1 -p message -e 32 -c 2 -a 0 -i 8 -k MAC
r -t 0.624581679 -s 9 -d -1 -p message -e 32 -c 2 -a 0 -i 8 -k MAC
r -t 0.624581748 -s 12 -d -1 -p message -e 32 -c 2 -a 0 -i 8 -k MAC
r -t 0.624581748 -s 2 -d -1 -p message -e 32 -c 2 -a 0 -i 8 -k MAC
r -t 0.624581748 -s 4 -d -1 -p message -e 32 -c 2 -a 0 -i 8 -k MAC
r -t 0.624581748 -s 14 -d -1 -p message -e 32 -c 2 -a 0 -i 8 -k MAC
r -t 0.624581846 -s 6 -d -1 -p message -e 32 -c 2 -a 0 -i 8 -k MAC
r -t 0.624581846 -s 18 -d -1 -p message -e 32 -c 2 -a 0 -i 8 -k MAC
r -t 0.624581885 -s 17 -d -1 -p message -e 32 -c 2 -a 0 -i 8 -k MAC
r -t 0.624581885 -s 11 -d -1 -p message -e 32 -c 2 -a 0 -i 8 -k MAC
r -t 0.624581885 -s 1 -d -1 -p message -e 32 -c 2 -a 0 -i 8 -k MAC
r -t 0.624581885 -s 19 -d -1 -p message -e 32 -c 2 -a 0 -i 8 -k MAC
r -t 0.624581984 -s 16 -d -1 -p message -e 32 -c 2 -a 0 -i 8 -k MAC
r -t 0.624582012 -s 5 -d -1 -p message -e 32 -c 2 -a 0 -i 8 -k MAC
r -t 0.624582039 -s 10 -d -1 -p message -e 32 -c 2 -a 0 -i 8 -k MAC
r -t 0.624582039 -s 0 -d -1 -p message -e 32 -c 2 -a 0 -i 8 -k MAC
r -t 0.624582113 -s 15 -d -1 -p message -e 32 -c 2 -a 0 -i 8 -k MAC
r -t 0.624606679 -s 3 -d -1 -p message -e 32 -c 2 -a 0 -i 8 -k RTR
r -t 0.624606679 -s 7 -d -1 -p message -e 32 -c 2 -a 0 -i 8 -k RTR
r -t 0.624606679 -s 13 -d -1 -p message -e 32 -c 2 -a 0 -i 8 -k RTR
r -t 0.624606679 -s 9 -d -1 -p message -e 32 -c 2 -a 0 -i 8 -k RTR
r -t 0.624606748 -s 12 -d -1 -p message -e 32 -c 2 -a 0 -i 8 -k RTR
r -t 0.624606748 -s 2 -d -1 -p message -e 32 -c 2 -a 0 -i 8 -k RTR
r -t 0.624606748 -s 4 -d -1 -p message -e 32 -c 2 -a 0 -i 8 -k RTR
r -t 0.624606748 -s 14 -d -1 -p message -e 32 -c 2 -a 0 -i 8 -k RTR
r -t 0.624606846 -s 6 -d -1 -p message -e 32 -c 2 -a 0 -i 8 -k RTR
r -t 0.624606846 -s 18 -d -1 -p message -e 32 -c 2 -a 0 -i 8 -k RTR
r -t 0.624606885 -s 17 -d -1 -p message -e 32 -c 2 -a 0 -i 8 -k RTR
r -t 0.624606885 -s 11 -d -1 -p message -e 32 -c 2 -a 0 -i 8 -k RTR
r -t 0.624606885 -s 1 -d -1 -p message -e 32 -c 2 -a 0 -i 8 -k RTR
r -t 0.624606885 -s 19 -d -1 -p message -e 32 -c 2 -a 0 -i 8 -k RTR
r -t 0.624606984 -s 16 -d -1 -p message -e 32 -c 2 -a 0 -i 8 -k RTR
r -t 0.624607012 -s 5 -d -1 -p message -e 32 -c 2 -a 0 -i 8 -k RTR
r -t 0.624607039 -s 10 -d -1 -p message -e 32 -c 2 -a 0 -i 8 -k RTR
r -t 0.624607039 -s 0 -d -1 -p message -e 32 -c 2 -a 0 -i 8 -k RTR
r -t 0.624607113 -s 15 -d -1 -p message -e 32 -c 2 -a 0 -i 8 -k RTR
+ -t 0.627785686 -s 4 -d -1 -p message -e 32 -c 2 -a 0 -i 9 -k RTR 
- -t 0.627785686 -s 4 -d -1 -p message -e 32 -c 2 -a 0 -i 9 -k RTR
h -t 0.627785686 -s 4 -d -1 -p message -e 32 -c 2 -a 0 -i 9 -k RTR
+ -t 0.628160686 -s 4 -d -1 -p message -e 90 -c 2 -a 0 -i 9 -k MAC 
- -t 0.628160686 -s 4 -d -1 -p message -e 90 -c 2 -a 0 -i 9 -k MAC
h -t 0.628160686 -s 4 -d -1 -p message -e 90 -c 2 -a 0 -i 9 -k MAC
r -t 0.628880852 -s 3 -d -1 -p message -e 32 -c 2 -a 0 -i 9 -k MAC
r -t 0.628880852 -s 9 -d -1 -p message -e 32 -c 2 -a 0 -i 9 -k MAC
r -t 0.628880922 -s 8 -d -1 -p message -e 32 -c 2 -a 0 -i 9 -k MAC
r -t 0.628881019 -s 2 -d -1 -p message -e 32 -c 2 -a 0 -i 9 -k MAC
r -t 0.628881019 -s 14 -d -1 -p message -e 32 -c 2 -a 0 -i 9 -k MAC
r -t 0.628881058 -s 13 -d -1 -p message -e 32 -c 2 -a 0 -i 9 -k MAC
r -t 0.628881058 -s 7 -d -1 -p message -e 32 -c 2 -a 0 -i 9 -k MAC
r -t 0.628881157 -s 12 -d -1 -p message -e 32 -c 2 -a 0 -i 9 -k MAC
r -t 0.628881186 -s 1 -d -1 -p message -e 32 -c 2 -a 0 -i 9 -k MAC
r -t 0.628881186 -s 19 -d -1 -p message -e 32 -c 2 -a 0 -i 9 -k MAC
r -t 0.628881213 -s 18 -d -1 -p message -e 32 -c 2 -a 0 -i 9 -k MAC
r -t 0.628881213 -s 6 -d -1 -p message -e 32 -c 2 -a 0 -i 9 -k MAC
r -t 0.628881287 -s 17 -d -1 -p message -e 32 -c 2 -a 0 -i 9 -k MAC
r -t 0.628881287 -s 11 -d -1 -p message -e 32 -c 2 -a 0 -i 9 -k MAC
r -t 0.628881352 -s 0 -d -1 -p message -e 32 -c 2 -a 0 -i 9 -k MAC
r -t 0.628881373 -s 5 -d -1 -p message -e 32 -c 2 -a 0 -i 9 -k MAC
r -t 0.628881393 -s 16 -d -1 -p message -e 32 -c 2 -a 0 -i 9 -k MAC
r -t 0.628881431 -s 10 -d -1 -p message -e 32 -c 2 -a 0 -i 9 -k MAC
r -t 0.628881519 -s 15 -d -1 -p message -e 32 -c 2 -a 0 -i 9 -k MAC
r -t 0.628905852 -s 3 -d -1 -p message -e 32 -c 2 -a 0 -i 9 -k RTR
r -t 0.628905852 -s 9 -d -1 -p message -e 32 -c 2 -a 0 -i 9 -k RTR
r -t 0.628905922 -s 8 -d -1 -p message -e 32 -c 2 -a 0 -i 9 -k RTR
r -t 0.628906019 -s 2 -d -1 -p message -e 32 -c 2 -a 0 -i 9 -k RTR