s -t 0.030383233 -Hs 42 -Hd -1 -Ni 42 -Nx 492.00 -Ny 182.00 -Nz 0.00 -Ne -1.000000 -Nl RTR -Nw --- -Ma 0 -Md 0 -Ms 0 -Mt 0 -Is 42.255 -Id -1.255 -It message -Il 32 -If 0 -Ii 0 -Iv 32 
s -t 0.030538233 -Hs 42 -Hd -1 -Ni 42 -Nx 492.00 -Ny 182.00 -Nz 0.00 -Ne -1.000000 -Nl MAC -Nw --- -Ma 0 -Md ffffffff -Ms 2a -Mt 800 -Is 42.255 -Id -1.255 -It message -Il 90 -If 0 -Ii 0 -Iv 32 
r -t 0.031258400 -Hs 32 -Hd -1 -Ni 32 -Nx 492.00 -Ny 232.00 -Nz 0.00 -Ne -1.000000 -Nl MAC -Nw --- -Ma 0 -Md ffffffff -Ms 2a -Mt 800 -Is 42.255 -Id -1.255 -It message -Il 32 -If 0 -Ii 0 -Iv 32 
r -t 0.031258400 -Hs 41 -Hd -1 -Ni 41 -Nx 442.00 -Ny 182.00 -Nz 0.00 -Ne -1.000000 -Nl MAC -Nw --- -Ma 0 -Md ffffffff -Ms 2a -Mt 800 -Is 42.255 -Id -1.255 -It message -Il 32 -If 0 -Ii 0 -Iv 32 
r -t 0.031258400 -Hs 43 -Hd -1 -Ni 43 -Nx 542.00 -Ny 182.00 -Nz 0.00 -Ne -1.000000 -Nl MAC -Nw --- -Ma 0 -Md ffffffff -Ms 2a -Mt 800 -Is 42.255 -Id -1.255 -It message -Il 32 -If 0 -Ii 0 -Iv 32 
r -t 0.031258469 -Hs 31 -Hd -1 -Ni 31 -Nx 442.00 -Ny 232.00 -Nz 0.00 -Ne -1.000000 -Nl MAC -Nw --- -Ma 0 -Md ffffffff -Ms 2a -Mt 800 -Is 42.255 -Id -1.255 -It message -Il 32 -If 0 -Ii 0 -Iv 32 
r -t 0.031258469 -Hs 33 -Hd -1 -Ni 33 -Nx 542.00 -Ny 232.00 -Nz 0.00 -Ne -1.000000 -Nl MAC -Nw --- -Ma 0 -Md ffffffff -Ms 2a -Mt 800 -Is 42.255 -Id -1.255 -It message -Il 32 -If 0 -Ii 0 -Iv 32 
r -t 0.031258567 -Hs 22 -Hd -1 -Ni 22 -Nx 492.00 -Ny 282.00 -Nz 0.00 -Ne -1.000000 -Nl MAC -Nw --- -Ma 0 -Md ffffffff -Ms 2a -Mt 800 -Is 42.255 -Id -1.255 -It message -Il 32 -If 0 -Ii 0 -Iv 32 
r -t 0.031258567 -Hs 40 -Hd -1 -Ni 40 -Nx 392.00 -Ny 182.00 -Nz 0.00 -Ne -1.000000 -Nl MAC -Nw --- -Ma 0 -Md ffffffff -Ms 2a -Mt 800 -Is 42.255 -Id -1.255 -It message -Il 32 -If 0 -Ii 0 -Iv 32 
r -t 0.031258567 -Hs 44 -Hd -1 -Ni 44 -Nx 592.00 -Ny 182.00 -Nz 0.00 -Ne -1.000000 -Nl MAC -Nw --- -Ma 0 -Md ffffffff -Ms 2a -Mt 800 -Is 42.255 -Id -1.255 -It message -Il 32 -If 0 -Ii 0 -Iv 32 
r -t 0.031258606 -Hs 21 -Hd -1 -Ni 21 -Nx 442.00 -Ny 282.00 -Nz 0.00 -Ne -1.000000 -Nl MAC -Nw --- -Ma 0 -Md ffffffff -Ms 2a -Mt 800 -Is 42.255 -Id -1.255 -It message -Il 32 -If 0 -Ii 0 -Iv 32 
r -t 0.031258606 -Hs 30 -Hd -1 -Ni 30 -Nx 392.00 -Ny 232.00 -Nz 0.00 -Ne -1.000000 -Nl MAC -Nw --- -Ma 0 -Md ffffffff -Ms 2a -Mt 800 -Is 42.255 -Id -1.255 -It message -Il 32 -If 0 -Ii 0 -Iv 32 
r -t 0.031258606 -Hs 23 -Hd -1 -Ni 23 -Nx 542.00 -Ny 282.00 -Nz 0.00 -Ne -1.000000 -Nl MAC -Nw --- -Ma 0 -Md ffffffff -Ms 2a -Mt 800 -Is 42.255 -Id -1.255 -It message -Il 32 -If 0 -Ii 0 -Iv 32 
r -t 0.031258606 -Hs 34 -Hd -1 -Ni 34 -Nx 592.00 -Ny 232.00 -Nz 0.00 -Ne -1.000000 -Nl MAC -Nw --- -Ma 0 -Md ffffffff -Ms 2a -Mt 800 -Is 42.255 -Id -1.255 -It message -Il 32 -If 0 -Ii 0 -Iv 32 
r -t 0.031258705 -Hs 20 -Hd -1 -Ni 20 -Nx 392.00 -Ny 282.00 -Nz 0.00 -Ne -1.000000 -Nl MAC -Nw --- -Ma 0 -Md ffffffff -Ms 2a -Mt 800 -Is 42.255 -Id -1.255 -It message -Il 32 -If 0 -Ii 0 -Iv 32 
r -t 0.031258705 -Hs 24 -Hd -1 -Ni 24 -Nx 592.00 -Ny 282.00 -Nz 0.00 -Ne -1.000000 -Nl MAC -Nw --- -Ma 0 -Md ffffffff -Ms 2a -Mt 800 -Is 42.255 -Id -1.255 -It message -Il 32 -If 0 -Ii 0 -Iv 32 
r -t 0.031258733 -Hs 12 -Hd -1 -Ni 12 -Nx 492.00 -Ny 332.00 -Nz 0.00 -Ne -1.000000 -Nl MAC -Nw --- -Ma 0 -Md ffffffff -Ms 2a -Mt 800 -Is 42.255 -Id -1.255 -It message -Il 32 -If 0 -Ii 0 -Iv 32 
r -t 0.031258733 -Hs 45 -Hd -1 -Ni 45 -Nx 642.00 -Ny 182.00 -Nz 0.00 -Ne -1.000000 -Nl MAC -Nw --- -Ma 0 -Md ffffffff -Ms 2a -Mt 800 -Is 42.255 -Id -1.255 -It message -Il 32 -If 0 -Ii 0 -Iv 32 
r -t 0.031258760 -Hs 11 -Hd -1 -Ni 11 -Nx 442.00 -Ny 332.00 -Nz 0.00 -Ne -1.000000 -Nl MAC -Nw --- -Ma 0 -Md ffffffff -Ms 2a -Mt 800 -Is 42.255 -Id -1.255 -It message -Il 32 -If 0 -Ii 0 -Iv 32 
r -t 0.031258760 -Hs 13 -Hd -1 -Ni 13 -Nx 542.00 -Ny 332.00 -Nz 0.00 -Ne -1.000000 -Nl MAC -Nw --- -Ma 0 -Md ffffffff -Ms 2a -Mt 800 -Is 42.255 -Id -1.255 -It message -Il 32 -If 0 -Ii 0 -Iv 32 
r -t 0.031258760 -Hs 35 -Hd -1 -Ni 35 -Nx 642.00 -Ny 232.00 -Nz 0.00 -Ne -1.000000 -Nl MAC -Nw --- -Ma 0 -Md ffffffff -Ms 2a -Mt 800 -Is 42.255 -Id -1.255 -It message -Il 32 -If 0 -Ii 0 -Iv 32 
r -t 0.031258834 -Hs 10 -Hd -1 -Ni 10 -Nx 392.00 -Ny 332.00 -Nz 0.00 -Ne -1.000000 -Nl MAC -Nw --- -Ma 0 -Md ffffffff -Ms 2a -Mt 800 -Is 42.255 -Id -1.255 -It message -Il 32 -If 0 -Ii 0 -Iv 32 
r -t 0.031258834 -Hs 14 -Hd -1 -Ni 14 -Nx 592.00 -Ny 332.00 -Nz 0.00 -Ne -1.000000 -Nl MAC -Nw --- -Ma 0 -Md ffffffff -Ms 2a -Mt 800 -Is 42.255 -Id -1.255 -It message -Il 32 -If 0 -Ii 0 -Iv 32 
r -t 0.031258834 -Hs 25 -Hd -1 -Ni 25 -Nx 642.00 -Ny 282.00 -Nz 0.00 -Ne -1.000000 -Nl MAC -Nw --- -Ma 0 -Md ffffffff -Ms 2a -Mt 800 -Is 42.255 -Id -1.255 -It message -Il 32 -If 0 -Ii 0 -Iv 32 
r -t 0.031258900 -Hs 2 -Hd -1 -Ni 2 -Nx 492.00 -Ny 382.00 -Nz 0.00 -Ne -1.000000 -Nl MAC -Nw --- -Ma 0 -Md ffffffff -Ms 2a -Mt 800 -Is 42.255 -Id -1.255 -It message -Il 32 -If 0 -Ii 0 -Iv 32 
r -t 0.031258900 -Hs 46 -Hd -1 -Ni 46 -Nx 692.00 -Ny 182.00 -Nz 0.00 -Ne -1.000000 -Nl MAC -Nw --- -Ma 0 -Md ffffffff -Ms 2a -Mt 800 -Is 42.255 -Id -1.255 -It message -Il 32 -If 0 -Ii 0 -Iv 32 
r -t 0.031258920 -Hs 1 -Hd -1 -Ni 1 -Nx 442.00 -Ny 382.00 -Nz 0.00 -Ne -1.000000 -Nl MAC -Nw --- -Ma 0 -Md ffffffff -Ms 2a -Mt 800 -Is 42.255 -Id -1.255 -It message -Il 32 -If 0 -Ii 0 -Iv 32 
r -t 0.031258920 -Hs 3 -Hd -1 -Ni 3 -Nx 542.00 -Ny 382.00 -Nz 0.00 -Ne -1.000000 -Nl MAC -Nw --- -Ma 0 -Md ffffffff -Ms 2a -Mt 800 -Is 42.255 -Id -1.255 -It message -Il 32 -If 0 -Ii 0 -Iv 32 
r -t 0.031258920 -Hs 36 -Hd -1 -Ni 36 -Nx 692.00 -Ny 232.00 -Nz 0.00 -Ne -1.000000 -Nl MAC -Nw --- -Ma 0 -Md ffffffff -Ms 2a -Mt 800 -Is 42.255 -Id -1.255 -It message -Il 32 -If 0 -Ii 0 -Iv 32 
r -t 0.031258940 -Hs 15 -Hd -1 -Ni 15 -Nx 642.00 -Ny 332.00 -Nz 0.00 -Ne -1.000000 -Nl MAC -Nw --- -Ma 0 -Md ffffffff -Ms 2a -Mt 800 -Is 42.255 -Id -1.255 -It message -Il 32 -If 0 -Ii 0 -Iv 32 
r -t 0.031258979 -Hs 0 -Hd -1 -Ni 0 -Nx 392.00 -Ny 382.00 -Nz 0.00 -Ne -1.000000 -Nl MAC -Nw --- -Ma 0 -Md ffffffff -Ms 2a -Mt 800 -Is 42.255 -Id -1.255 -It message -Il 32 -If 0 -Ii 0 -Iv 32 
r -t 0.031258979 -Hs 4 -Hd -1 -Ni 4 -Nx 592.00 -Ny 382.00 -Nz 0.00 -Ne -1.000000 -Nl MAC -Nw --- -Ma 0 -Md ffffffff -Ms 2a -Mt 800 -Is 42.255 -Id -1.255 -It message -Il 32 -If 0 -Ii 0 -Iv 32 
r -t 0.031258979 -Hs 26 -Hd -1 -Ni 26 -Nx 692.00 -Ny 282.00 -Nz 0.00 -Ne -1.000000 -Nl MAC -Nw --- -Ma 0 -Md ffffffff -Ms 2a -Mt 800 -Is 42.255 -Id -1.255 -It message -Il 32 -If 0 -Ii 0 -Iv 32 
r -t 0.031259067 -Hs 5 -Hd -1 -Ni 5 -Nx 642.00 -Ny 382.00 -Nz 0.00 -Ne -1.000000 -Nl MAC -Nw --- -Ma 0 -Md ffffffff -Ms 2a -Mt 800 -Is 42.255 -Id -1.255 -It message -Il 32 -If 0 -Ii 0 -Iv 32 
r -t 0.031259067 -Hs 16 -Hd -1 -Ni 16 -Nx 692.00 -Ny 332.00 -Nz 0.00 -Ne -1.000000 -Nl MAC -Nw --- -Ma 0 -Md ffffffff -Ms 2a -Mt 800 -Is 42.255 -Id -1.255 -It message -Il 32 -If 0 -Ii 0 -Iv 32 
r -t 0.031259067 -Hs 47 -Hd -1 -Ni 47 -Nx 742.00 -Ny 182.00 -Nz 0.00 -Ne -1.000000 -Nl MAC -Nw --- -Ma 0 -Md ffffffff -Ms 2a -Mt 800 -Is 42.255 -Id -1.255 -It message -Il 32 -If 0 -Ii 0 -Iv 32 
r -t 0.031283400 -Hs 32 -Hd -1 -Ni 32 -Nx 492.00 -Ny 232.00 -Nz 0.00 -Ne -1.000000 -Nl RTR -Nw --- -Ma 0 -Md ffffffff -Ms 2a -Mt 800 -Is 42.255 -Id -1.255 -It message -Il 32 -If 0 -Ii 0 -Iv 32 
r -t 0.031283400 -Hs 41 -Hd -1 -Ni 41 -Nx 442.00 -Ny 182.00 -Nz 0.00 -Ne -1.000000 -Nl RTR -Nw --- -Ma 0 -Md ffffffff -Ms 2a -Mt 800 -Is 42.255 -Id -1.255 -It message -Il 32 -If 0 -Ii 0 -Iv 32 
r -t 0.031283400 -Hs 43 -Hd -1 -Ni 43 -Nx 542.00 -Ny 182.00 -Nz 0.00 -Ne -1.000000 -Nl RTR -Nw --- -Ma 0 -Md ffffffff -Ms 2a -Mt 800 -Is 42.255 -Id -1.255 -It message -Il 32 -If 0 -Ii 0 -Iv 32 
r -t 0.031283469 -Hs 31 -Hd -1 -Ni 31 -Nx 442.00 -Ny 232.00 -Nz 0.00 -Ne -1.000000 -Nl RTR -Nw --- -Ma 0 -Md ffffffff -Ms 2a -Mt 800 -Is 42.255 -Id -1.255 -It message -Il 32 -If 0 -Ii 0 -Iv 32 
r -t 0.031283469 -Hs 33 -Hd -1 -Ni 33 -Nx 542.00 -Ny 232.00 -Nz 0.00 -Ne -1.000000 -Nl RTR -Nw --- -Ma 0 -Md ffffffff -Ms 2a -Mt 800 -Is 42.255 -Id -1.255 -It message -Il 32 -If 0 -Ii 0 -Iv 32 
r -t 0.031283567 -Hs 22 -Hd -1 -Ni 22 -Nx 492.00 -Ny 282.00 -Nz 0.00 -Ne -1.000000 -Nl RTR -Nw --- -Ma 0 -Md ffffffff -Ms 2a -Mt 800 -Is 42.255 -Id -1.255 -It message -Il 32 -If 0 -Ii 0 -Iv 32 
r -t 0.031283567 -Hs 40 -Hd -1 -Ni 40 -Nx 392.00 -Ny 182.00 -Nz 0.00 -Ne -1.000000 -Nl RTR -Nw --- -Ma 0 -Md ffffffff -Ms 2a -Mt 800 -Is 42.255 -Id -1.255 -It message -Il 32 -If 0 -Ii 0 -Iv 32 
r -t 0.031283567 -Hs 44 -Hd -1 -Ni 44 -Nx 592.00 -Ny 182.00 -Nz 0.00 -Ne -1.000000 -Nl RTR -Nw --- -Ma 0 -Md ffffffff -Ms 2a -Mt 800 -Is 42.255 -Id -1.255 -It message -Il 32 -If 0 -Ii 0 -Iv 32 
r -t 0.031283606 -Hs 21 -Hd -1 -Ni 21 -Nx 442.00 -Ny 282.00 -Nz 0.00 -Ne -1.000000 -Nl RTR -Nw --- -Ma 0 -Md ffffffff -Ms 2a -Mt 800 -Is 42.255 -Id -1.255 -It message -Il 32 -If 0 -Ii 0 -Iv 32 
r -t 0.031283606 -Hs 30 -Hd -1 -Ni 30 -Nx 392.00 -Ny 232.00 -Nz 0.00 -Ne -1.000000 -Nl RTR -Nw --- -Ma 0 -Md ffffffff -Ms 2a -Mt 800 -Is 42.255 -Id -1.255 -It message -Il 32 -If 0 -Ii 0 -Iv 32 
r -t 0.031283606 -Hs 23 -Hd -1 -Ni 23 -Nx 542.00 -Ny 282.00 -Nz 0.00 -Ne -1.000000 -Nl RTR -Nw --- -Ma 0 -Md ffffffff -Ms 2a -Mt 800 -Is 42.255 -Id -1.255 -It message -Il 32 -If 0 -Ii 0 -Iv 32 
r -t 0.031283606 -Hs 34 -Hd -1 -Ni 34 -Nx 592.00 -Ny 232.00 -Nz 0.00 -Ne -1.000000 -Nl RTR -Nw --- -Ma 0 -Md ffffffff -Ms 2a -Mt 800 -Is 42.255 -Id -1.255 -It message -Il 32 -If 0 -Ii 0 -Iv 32 
r -t 0.031283705 -Hs 20 -Hd -1 -Ni 20 -Nx 392.00 -Ny 282.00 -Nz 0.00 -Ne -1.000000 -Nl RTR -Nw --- -Ma 0 -Md ffffffff -Ms 2a -Mt 800 -Is 42.255 -Id -1.255 -It message -Il 32 -If 0 -Ii 0 -Iv 32 
r -t 0.031283705 -Hs 24 -Hd -1 -Ni 24 -Nx 592.00 -Ny 282.00 -Nz 0.00 -Ne -1.000000 -Nl RTR -Nw --- -Ma 0 -Md ffffffff -Ms 2a -Mt 800 -Is 42.255 -Id -1.255 -It message -Il 32 -If 0 -Ii 0 -Iv 32 
r -t 0.031283733 -Hs 12 -Hd -1 -Ni 12 -Nx 492.00 -Ny 332.00 -Nz 0.00 -Ne -1.000000 -Nl RTR -Nw --- -Ma 0 -Md ffffffff -Ms 2a -Mt 800 -Is 42.255 -Id -1.255 -It message -Il 32 -If 0 -Ii 0 -Iv 32 
r -t 0.031283733 -Hs 45 -Hd -1 -Ni 45 -Nx 642.00 -Ny 182.00 -Nz 0.00 -Ne -1.000000 -Nl RTR -Nw --- -Ma 0 -Md ffffffff -Ms 2a -Mt 800 -Is 42.255 -Id -1.255 -It message -Il 32 -If 0 -Ii 0 -Iv 32 
r -t 0.031283760 -Hs 11 -Hd -1 -Ni 11 -Nx 442.00 -Ny 332.00 -Nz 0.00 -Ne -1.000000 -Nl RTR -Nw --- -Ma 0 -Md ffffffff -Ms 2a -Mt 800 -Is 42.255 -Id -1.255 -It message -Il 32 -If 0 -Ii 0 -Iv 32 
r -t 0.031283760 -Hs 13 -Hd -1 -Ni 13 -Nx 542.00 -Ny 332.00 -Nz 0.00 -Ne -1.000000 -Nl RTR -Nw --- -Ma 0 -Md ffffffff -Ms 2a -Mt 800 -Is 42.255 -Id -1.255 -It message -Il 32 -If 0 -Ii 0 -Iv 32 
r -t 0.031283760 -Hs 35 -Hd -1 -Ni 35 -Nx 642.00 -Ny 232.00 -Nz 0.00 -Ne -1.000000 -Nl RTR -Nw --- -Ma 0 -Md ffffffff -Ms 2a -Mt 800 -Is 42.255 -Id -1.255 -It message -Il 32 -If 0 -Ii 0 -Iv 32 
r -t 0.031283834 -Hs 10 -Hd -1 -Ni 10 -Nx 392.00 -Ny 332.00 -Nz 0.00 -Ne -1.000000 -Nl RTR -Nw --- -Ma 0 -Md ffffffff -Ms 2a -Mt 800 -Is 42.255 -Id -1.255 -It message -Il 32 -If 0 -Ii 0 -Iv 32 
r -t 0.031283834 -Hs 14 -Hd -1 -Ni 14 -Nx 592.00 -Ny 332.00 -Nz 0.00 -Ne -1.000000 -Nl RTR -Nw --- -Ma 0 -Md ffffffff -Ms 2a -Mt 800 -Is 42.255 -Id -1.255 -It message -Il 32 -If 0 -Ii 0 -Iv 32 
r -t 0.031283834 -Hs 25 -Hd -1 -Ni 25 -Nx 642.00 -Ny 282.00 -Nz 0.00 -Ne -1.000000 -Nl RTR -Nw --- -Ma 0 -Md ffffffff -Ms 2a -Mt 800 -Is 42.255 -Id -1.255 -It message -Il 32 -If 0 -Ii 0 -Iv 32 
r -t 0.031283900 -Hs 2 -Hd -1 -Ni 2 -Nx 492.00 -Ny 382.00 -Nz 0.00 -Ne -1.000000 -Nl RTR -Nw --- -Ma 0 -Md ffffffff -Ms 2a -Mt 800 -Is 42.255 -Id -1.255 -It message -Il 32 -If 0 -Ii 0 -Iv 32 
r -t 0.031283900 -Hs 46 -Hd -1 -Ni 46 -Nx 692.00 -Ny 182.00 -Nz 0.00 -Ne -1.000000 -Nl RTR -Nw --- -Ma 0 -Md ffffffff -Ms 2a -Mt 800 -Is 42.255 -Id -1.255 -It message -Il 32 -If 0 -Ii 0 -Iv 32 
r -t 0.031283920 -Hs 1 -Hd -1 -Ni 1 -Nx 442.00 -Ny 382.00 -Nz 0.00 -Ne -1.000000 -Nl RTR -Nw --- -Ma 0 -Md ffffffff -Ms 2a -Mt 800 -Is 42.255 -Id -1.255 -It message -Il 32 -If 0 -Ii 0 -Iv 32 
r -t 0.031283920 -Hs 3 -Hd -1 -Ni 3 -Nx 542.00 -Ny 382.00 -Nz 0.00 -Ne -1.000000 -Nl RTR -Nw --- -Ma 0 -Md ffffffff -Ms 2a -Mt 800 -Is 42.255 -Id -1.255 -It message -Il 32 -If 0 -Ii 0 -Iv 32 
r -t 0.031283920 -Hs 36 -Hd -1 -Ni 36 -Nx 692.00 -Ny 232.00 -Nz 0.00 -Ne -1.000000 -Nl RTR -Nw --- -Ma 0 -Md ffffffff -Ms 2a -Mt 800 -Is 42.255 -Id -1.255 -It message -Il 32 -If 0 -Ii 0 -Iv 32 
r -t 0.031283940 -Hs 15 -Hd -1 -Ni 15 -Nx 642.00 -Ny 332.00 -Nz 0.00 -Ne -1.000000 -Nl RTR -Nw --- -Ma 0 -Md ffffffff -Ms 2a -Mt 800 -Is 42.255 -Id -1.255 -It message -Il 32 -If 0 -Ii 0 -Iv 32 
r -t 0.031283979 -Hs 0 -Hd -1 -Ni 0 -Nx 392.00 -Ny 382.00 -Nz 0.00 -Ne -1.000000 -Nl RTR -Nw --- -Ma 0 -Md ffffffff -Ms 2a -Mt 800 -Is 42.255 -Id -1.255 -It message -Il 32 -If 0 -Ii 0 -Iv 32 
r -t 0.031283979 -Hs 4 -Hd -1 -Ni 4 -Nx 592.00 -Ny 382.00 -Nz 0.00 -Ne -1.000000 -Nl RTR -Nw --- -Ma 0 -Md ffffffff -Ms 2a -Mt 800 -Is 42.255 -Id -1.255 -It message -Il 32 -If 0 -Ii 0 -Iv 32 
r -t 0.031283979 -Hs 26 -Hd -1 -Ni 26 -Nx 692.00 -Ny 282.00 -Nz 0.00 -Ne -1.000000 -Nl RTR -Nw --- -Ma 0 -Md ffffffff -Ms 2a -Mt 800 -Is 42.255 -Id -1.255 -It message -Il 32 -If 0 -Ii 0 -Iv 32 
r -t 0.031284067 -Hs 5 -Hd -1 -Ni 5 -Nx 642.00 -Ny 382.00 -Nz 0.00 -Ne -1.000000 -Nl RTR -Nw --- -Ma 0 -Md ffffffff -Ms 2a -Mt 800 -Is 42.255 -Id -1.255 -It message -Il 32 -If 0 -Ii 0 -Iv 32 
r -t 0.031284067 -Hs 16 -Hd -1 -Ni 16 -Nx 692.00 -Ny 332.00 -Nz 0.00 -Ne -1.000000 -Nl RTR -Nw --- -Ma 0 -Md ffffffff -Ms 2a -Mt 800 -Is 42.255 -Id -1.255 -It message -Il 32 -If 0 -Ii 0 -Iv 32 
r -t 0.031284067 -Hs 47 -Hd -1 -Ni 47 -Nx 742.00 -Ny 182.00 -Nz 0.00 -Ne -1.000000 -Nl RTR -Nw --- -Ma 0 -Md ffffffff -Ms 2a -Mt 800 -Is 42.255 -Id -1.255 -It message -Il 32 -If 0 -Ii 0 -Iv 32 
s -t 0.033957718 -Hs 0 -Hd -1 -Ni 0 -Nx 392.00 -Ny 382.00 -Nz 0.00 -Ne -1.000000 -Nl RTR -Nw --- -Ma 0 -Md 0 -Ms 0 -Mt 0 -Is 0.255 -Id -1.255 -It message -Il 32 -If 0 -Ii 1 -Iv 32 
s -t 0.034032718 -Hs 0 -Hd -1 -Ni 0 -Nx 392.00 -Ny 382.00 -Nz 0.00 -Ne -1.000000 -Nl MAC -Nw --- -Ma 0 -Md ffffffff -Ms 0 -Mt 800 -Is 0.255 -Id -1.255 -It message -Il 90 -If 0 -Ii 1 -Iv 32 
r -t 0.034752885 -Hs 10 -Hd -1 -Ni 10 -Nx 392.00 -Ny 332.00 -Nz 0.00 -Ne -1.000000 -Nl MAC -Nw --- -Ma 0 -Md ffffffff -Ms 0 -Mt 800 -Is 0.255 -Id -1.255 -It message -Il 32 -If 0 -Ii 1 -Iv 32 
r -t 0.034752885 -Hs 1 -Hd -1 -Ni 1 -Nx 442.00 -Ny 382.00 -Nz 0.00 -Ne -1.000000 -Nl MAC -Nw --- -Ma 0 -Md ffffffff -Ms 0 -Mt 800 -Is 0.255 -Id -1.255 -It message -Il 32 -If 0 -Ii 1 -Iv 32 
r -t 0.034752954 -Hs 11 -Hd -1 -Ni 11 -Nx 442.00 -Ny 332.00 -Nz 0.00 -Ne -1.000000 -Nl MAC -Nw --- -Ma 0 -Md ffffffff -Ms 0 -Mt 800 -Is 0.255 -Id -1.255 -It message -Il 32 -If 0 -Ii 1 -Iv 32 
r -t 0.034753051 -Hs 20 -Hd -1 -Ni 20 -Nx 392.00 -Ny 282.00 -Nz 0.00 -Ne -1.000000 -Nl MAC -Nw --- -Ma 0 -Md ffffffff -Ms 0 -Mt 800 -Is 0.255 -Id -1.255 -It message -Il 32 -If 0 -Ii 1 -Iv 32 
r -t 0.034753051 -Hs 2 -Hd -1 -Ni 2 -Nx 492.00 -Ny 382.00 -Nz 0.00 -Ne -1.000000 -Nl MAC -Nw --- -Ma 0 -Md ffffffff -Ms 0 -Mt 800 -Is 0.255 -Id -1.255 -It message -Il 32 -If 0 -Ii 1 -Iv 32 
r -t 0.034753091 -Hs 21 -Hd -1 -Ni 21 -Nx 442.00 -Ny 282.00 -Nz 0.00 -Ne -1.000000 -Nl MAC -Nw --- -Ma 0 -Md ffffffff -Ms 0 -Mt 800 -Is 0.255 -Id -1.255 -It message -Il 32 -If 0 -Ii 1 -Iv 32 
r -t 0.034753091 -Hs 12 -Hd -1 -Ni 12 -Nx 492.00 -Ny 332.00 -Nz 0.00 -Ne -1.000000 -Nl MAC -Nw --- -Ma 0 -Md ffffffff -Ms 0 -Mt 800 -Is 0.255 -Id -1.255 -It message -Il 32 -If 0 -Ii 1 -Iv 32 
r -t 0.034753189 -Hs 22 -Hd -1 -Ni 22 -Nx 492.00 -Ny 282.00 -Nz 0.00 -Ne -1.000000 -Nl MAC -Nw --- -Ma 0 -Md ffffffff -Ms 0 -Mt 800 -Is 0.255 -Id -1.255 -It message -Il 32 -If 0 -Ii 1 -Iv 32 
r -t 0.034753218 -Hs 30 -Hd -1 -Ni 30 -Nx 392.00 -Ny 232.00 -Nz 0.00 -Ne -1.000000 -Nl MAC -Nw --- -Ma 0 -Md ffffffff -Ms 0 -Mt 800 -Is 0.255 -Id -1.255 -It message -Il 32 -If 0 -Ii 1 -Iv 32 
r -t 0.034753218 -Hs 3 -Hd -1 -Ni 3 -Nx 542.00 -Ny 382.00 -Nz 0.00 -Ne -1.000000 -Nl MAC -Nw --- -Ma 0 -Md ffffffff -Ms 0 -Mt 800 -Is 0.255 -Id -1.255 -It message -Il 32 -If 0 -Ii 1 -Iv 32 
r -t 0.034753245 -Hs 31 -Hd -1 -Ni 31 -Nx 442.00 -Ny 232.00 -Nz 0.00 -Ne -1.000000 -Nl MAC -Nw --- -Ma 0 -Md ffffffff -Ms 0 -Mt 800 -Is 0.255 -Id -1.255 -It message -Il 32 -If 0 -Ii 1 -Iv 32 
r -t 0.034753245 -Hs 13 -Hd -1 -Ni 13 -Nx 542.00 -Ny 332.00 -Nz 0.00 -Ne -1.000000 -Nl MAC -Nw --- -Ma 0 -Md ffffffff -Ms 0 -Mt 800 -Is 0.255 -Id -1.255 -It message -Il 32 -If 0 -Ii 1 -Iv 32 
r -t 0.034753319 -Hs 32 -Hd -1 -Ni 32 -Nx 492.00 -Ny 232.00 -Nz 0.00 -Ne -1.000000 -Nl MAC -Nw --- -Ma 0 -Md ffffffff -Ms 0 -Mt 800 -Is 0.255 -Id -1.255 -It message -Il 32 -If 0 -Ii 1 -Iv 32 
r -t 0.034753319 -Hs 23 -Hd -1 -Ni 23 -Nx 542.00 -Ny 282.00 -Nz 0.00 -Ne -1.000000 -Nl MAC -Nw --- -Ma 0 -Md ffffffff -Ms 0 -Mt 800 -Is 0.255 -Id -1.255 -It message -Il 32 -If 0 -Ii 1 -Iv 32 
r -t 0.034753385 -Hs 40 -Hd -1 -Ni 40 -Nx 392.00 -Ny 182.00 -Nz 0.00 -Ne -1.000000 -Nl MAC -Nw --- -Ma 0 -Md ffffffff -Ms 0 -Mt 800 -Is 0.255 -Id -1.255 -It message -Il 32 -If 0 -Ii 1 -Iv 32 
r -t 0.034753385 -Hs 4 -Hd -1 -Ni 4 -Nx 592.00 -Ny 382.00 -Nz 0.00 -Ne -1.000000 -Nl MAC -Nw --- -Ma 0 -Md ffffffff -Ms 0 -Mt 800 -Is 0.255 -Id -1.255 -It message -Il 32 -If 0 -Ii 1 -Iv 32 
r -t 0.034753405 -Hs 41 -Hd -1 -Ni 41 -Nx 442.00 -Ny 182.00 -Nz 0.00 -Ne -1.000000 -Nl MAC -Nw --- -Ma 0 -Md ffffffff -Ms 0 -Mt 800 -Is 0.255 -Id -1.255 -It message -Il 32 -If 0 -Ii 1 -Iv 32 
r -t 0.034753405 -Hs 14 -Hd -1 -Ni 14 -Nx 592.00 -Ny 332.00 -Nz 0.00 -Ne -1.000000 -Nl MAC -Nw --- -Ma 0 -Md ffffffff -Ms 0 -Mt 800 -Is 0.255 -Id -1.255 -It message -Il 32 -If 0 -Ii 1 -Iv 32 
r -t 0.034753425 -Hs 33 -Hd -1 -Ni 33 -Nx 542.00 -Ny 232.00 -Nz 0.00 -Ne -1.000000 -Nl MAC -Nw --- -Ma 0 -Md ffffffff -Ms 0 -Mt 800 -Is 0.255 -Id -1.255 -It message -Il 32 -If 0 -Ii 1 -Iv 32 
r -t 0.034753463 -Hs 42 -Hd -1 -Ni 42 -Nx 492.00 -Ny 182.00 -Nz 0.00 -Ne -1.000000 -Nl MAC -Nw --- -Ma 0 -Md ffffffff -Ms 0 -Mt 800 -Is 0.255 -Id -1.255 -It message -Il 32 -If 0 -Ii 1 -Iv 32 
r -t 0.034753463 -Hs 24 -Hd -1 -Ni 24 -Nx 592.00 -Ny 282.00 -Nz 0.00 -Ne -1.000000 -Nl MAC -Nw --- -Ma 0 -Md ffffffff -Ms 0 -Mt 800 -Is 0.255 -Id -1.255 -It message -Il 32 -If 0 -Ii 1 -Iv 32 
r -t 0.034753551 -Hs 43 -Hd -1 -Ni 43 -Nx 542.00 -Ny 182.00 -Nz 0.00 -Ne -1.000000 -Nl MAC -Nw --- -Ma 0 -Md ffffffff -Ms 0 -Mt 800 -Is 0.255 -Id -1.255 -It message -Il 32 -If 0 -Ii 1 -Iv 32 
r -t 0.034753551 -Hs 34 -Hd -1 -Ni 34 -Nx 592.00 -Ny 232.00 -Nz 0.00 -Ne -1.000000 -Nl MAC -Nw --- -Ma 0 -Md ffffffff -Ms 0 -Mt 800 -Is 0.255 -Id -1.255 -It message -Il 32 -If 0 -Ii 1 -Iv 32 
r -t 0.034753551 -Hs 5 -Hd -1 -Ni 5 -Nx 642.00 -Ny 382.00 -Nz 0.00 -Ne -1.000000 -Nl MAC -Nw --- -Ma 0 -Md ffffffff -Ms 0 -Mt 800 -Is 0.255 -Id -1.255 -It message -Il 32 -If 0 -Ii 1 -Iv 32 
r -t 0.034777885 -Hs 10 -Hd -1 -Ni 10 -Nx 392.00 -Ny 332.00 -Nz 0.00 -Ne -1.000000 -Nl RTR -Nw --- -Ma 0 -Md ffffffff -Ms 0 -Mt 800 -Is 0.255 -Id -1.255 -It message -Il 32 -If 0 -Ii 1 -Iv 32 
r -t 0.034777885 -Hs 1 -Hd -1 -Ni 1 -Nx 442.00 -Ny 382.00 -Nz 0.00 -Ne -1.000000 -Nl RTR -Nw --- -Ma 0 -Md ffffffff -Ms 0 -Mt 800 -Is 0.255 -Id -1.255 -It message -Il 32 -If 0 -Ii 1 -Iv 32 
r -t 0.034777954 -Hs 11 -Hd -1 -Ni 11 -Nx 442.00 -Ny 332.00 -Nz 0.00 -Ne -1.000000 -Nl RTR -Nw --- -Ma 0 -Md ffffffff -Ms 0 -Mt 800 -Is 0.255 -Id -1.255 -It message -Il 32 -If 0 -Ii 1 -Iv 32 
r -t 0.034778051 -Hs 20 -Hd -1 -Ni 20 -Nx 392.00 -Ny 282.00 -Nz 0.00 -Ne -1.000000 -Nl RTR -Nw --- -Ma 0 -Md ffffffff -Ms 0 -Mt 800 -Is 0.255 -Id -1.255 -It message -Il 32 -If 0 -Ii 1 -Iv 32 
r -t 0.034778051 -Hs 2 -Hd -1 -Ni 2 -Nx 492.00 -Ny 382.00 -Nz 0.00 -Ne -1.000000 -Nl RTR -Nw --- -Ma 0 -Md ffffffff -Ms 0 -Mt 800 -Is 0.255 -Id -1.255 -It message -Il 32 -If 0 -Ii 1 -Iv 32 
r -t 0.034778091 -Hs 21 -Hd -1 -Ni 21 -Nx 442.00 -Ny 282.00 -Nz 0.00 -Ne -1.000000 -Nl RTR -Nw --- -Ma 0 -Md ffffffff -Ms 0 -Mt 800 -Is 0.255 -Id -1.255 -It message -Il 32 -If 0 -Ii 1 -Iv 32 
r -t 0.034778091 -Hs 12 -Hd -1 -Ni 12 -Nx 492.00 -Ny 332.00 -Nz 0.00 -Ne -1.000000 -Nl RTR -Nw --- -Ma 0 -Md ffffffff -Ms 0 -Mt 800 -Is 0.255 -Id -1.255 -It message -Il 32 -If 0 -Ii 1 -Iv 32 
r -t 0.034778189 -Hs 22 -Hd -1 -Ni 22 -Nx 492.00 -Ny 282.00 -Nz 0.00 -Ne -1.000000 -Nl RTR -Nw --- -Ma 0 -Md ffffffff -Ms 0 -Mt 800 -Is 0.255 -Id -1.255 -It message -Il 32 -If 0 -Ii 1 -Iv 32 
r -t 0.034778218 -Hs 30 -Hd -1 -Ni 30 -Nx 392.00 -Ny 232.00 -Nz 0.00 -Ne -1.000000 -Nl RTR -Nw --- -Ma 0 -Md ffffffff -Ms 0 -Mt 800 -Is 0.255 -Id -1.255 -It message -Il 32 -If 0 -Ii 1 -Iv 32 
r -t 0.034778218 -Hs 3 -Hd -1 -Ni 3 -Nx 542.00 -Ny 382.00 -Nz 0.00 -Ne -1.000000 -Nl RTR -Nw --- -Ma 0 -Md ffffffff -Ms 0 -Mt 800 -Is 0.255 -Id -1.255 -It message -Il 32 -If 0 -Ii 1 -Iv 32 
r -t 0.034778245 -Hs 31 -Hd -1 -Ni 31 -Nx 442.00 -Ny 232.00 -Nz 0.00 -Ne -1.000000 -Nl RTR -Nw --- -Ma 0 -Md ffffffff -Ms 0 -Mt 800 -Is 0.255 -Id -1.255 -It message -Il 32 -If 0 -Ii 1 -Iv 32 
r -t 0.034778245 -Hs 13 -Hd -1 -Ni 13 -Nx 542.00 -Ny 332.00 -Nz 0.00 -Ne -1.000000 -Nl RTR -Nw --- -Ma 0 -Md ffffffff -Ms 0 -Mt 800 -Is 0.255 -Id -1.255 -It message -Il 32 -If 0 -Ii 1 -Iv 32 
r -t 0.034778319 -Hs 32 -Hd -1 -Ni 32 -Nx 492.00 -Ny 232.00 -Nz 0.00 -Ne -1.000000 -Nl RTR -Nw --- -Ma 0 -Md ffffffff -Ms 0 -Mt 800 -Is 0.255 -Id -1.255 -It message -Il 32 -If 0 -Ii 1 -Iv 32 
r -t 0.034778319 -Hs 23 -Hd -1 -Ni 23 -Nx 542.00 -Ny 282.00 -Nz 0.00 -Ne -1.000000 -Nl RTR -Nw --- -Ma 0 -Md ffffffff -Ms 0 -Mt 800 -Is 0.255 -Id -1.255 -It message -Il 32 -If 0 -Ii 1 -Iv 32 
r -t 0.034778385 -Hs 40 -Hd -1 -Ni 40 -Nx 392.00 -Ny 182.00 -Nz 0.00 -Ne -1.000000 -Nl RTR -Nw --- -Ma 0 -Md ffffffff -Ms 0 -Mt 800 -Is 0.255 -Id -1.255 -It message -Il 32 -If 0 -Ii 1 -Iv 32 
r -t 0.034778385 -Hs 4 -Hd -1 -Ni 4 -Nx 592.00 -Ny 382.00 -Nz 0.00 -Ne -1.000000 -Nl RTR -Nw --- -Ma 0 -Md ffffffff -Ms 0 -Mt 800 -Is 0.255 -Id -1.255 -It message -Il 32 -If 0 -Ii 1 -Iv 32 
r -t 0.034778405 -Hs 41 -Hd -1 -Ni 41 -Nx 442.00 -Ny 182.00 -Nz 0.00 -Ne -1.000000 -Nl RTR -Nw --- -Ma 0 -Md ffffffff -Ms 0 -Mt 800 -Is 0.255 -Id -1.255 -It message -Il 32 -If 0 -Ii 1 -Iv 32 
r -t 0.034778405 -Hs 14 -Hd -1 -Ni 14 -Nx 592.00 -Ny 332.00 -Nz 0.00 -Ne -1.000000 -Nl RTR -Nw --- -Ma 0 -Md ffffffff -Ms 0 -Mt 800 -Is 0.255 -Id -1.255 -It message -Il 32 -If 0 -Ii 1 -Iv 32 
r -t 0.034778425 -Hs 33 -Hd -1 -Ni 33 -Nx 542.00 -Ny 232.00 -Nz 0.00 -Ne -1.000000 -Nl RTR -Nw --- -Ma 0 -Md ffffffff -Ms 0 -Mt 800 -Is 0.255 -Id -1.255 -It message -Il 32 -If 0 -Ii 1 -Iv 32 
r -t 0.034778463 -Hs 42 -Hd -1 -Ni 42 -Nx 492.00 -Ny 182.00 -Nz 0.00 -Ne -1.000000 -Nl RTR -Nw --- -Ma 0 -Md ffffffff -Ms 0 -Mt 800 -Is 0.255 -Id -1.255 -It message -Il 32 -If 0 -Ii 1 -Iv 32 
r -t 0.034778463 -Hs 24 -Hd -1 -Ni 24 -Nx 592.00 -Ny 282.00 -Nz 0.00 -Ne -1.000000 -Nl RTR -Nw --- -Ma 0 -Md ffffffff -Ms 0 -Mt 800 -Is 0.255 -Id -1.255 -It message -Il 32 -If 0 -Ii 1 -Iv 32 
r -t 0.034778551 -Hs 43 -Hd -1 -Ni 43 -Nx 542.00 -Ny 182.00 -Nz 0.00 -Ne -1.000000 -Nl RTR -Nw --- -Ma 0 -Md ffffffff -Ms 0 -Mt 800 -Is 0.255 -Id -1.255 -It message -Il 32 -If 0 -Ii 1 -Iv 32 
r -t 0.034778551 -Hs 34 -Hd -1 -Ni 34 -Nx 592.00 -Ny 232.00 -Nz 0.00 -Ne -1.000000 -Nl RTR -Nw --- -Ma 0 -Md ffffffff -Ms 0 -Mt 800 -Is 0.255 -Id -1.255 -It message -Il 32 -If 0 -Ii 1 -Iv 32 
r -t 0.034778551 -Hs 5 -Hd -1 -Ni 5 -Nx 642.00 -Ny 382.00 -Nz 0.00 -Ne -1.000000 -Nl RTR -Nw --- -Ma 0 -Md ffffffff -Ms 0 -Mt 800 -Is 0.255 -Id -1.255 -It message -Il 32 -If 0 -Ii 1 -Iv 32 
s -t 0.095057277 -Hs 11 -Hd -1 -Ni 11 -Nx 442.00 -Ny 332.00 -Nz 0.00 -Ne -1.000000 -Nl RTR -Nw --- -Ma 0 -Md 0 -Ms 0 -Mt 0 -Is 11.255 -Id -1.255 -It message -Il 32 -If 0 -Ii 2 -Iv 32 
s -t 0.095152277 -Hs 11 -Hd -1 -Ni 11 -Nx 442.00 -Ny 332.00 -Nz 0.00 -Ne -1.000000 -Nl MAC -Nw --- -Ma 0 -Md ffffffff -Ms b -Mt 800 -Is 11.255 -Id -1.255 -It message -Il 90 -If 0 -Ii 2 -Iv 32 
r -t 0.095872444 -Hs 1 -Hd -1 -Ni 1 -Nx 442.00 -Ny 382.00 -Nz 0.00 -Ne -1.000000 -Nl MAC -Nw --- -Ma 0 -Md ffffffff -Ms b -Mt 800 -Is 11.255 -Id -1.255 -It message -Il 32 -If 0 -Ii 2 -Iv 32 
r -t 0.095872444 -Hs 10 -Hd -1 -Ni 10 -Nx 392.00 -Ny 332.00 -Nz 0.00 -Ne -1.000000 -Nl MAC -Nw --- -Ma 0 -Md ffffffff -Ms b -Mt 800 -Is 11.255 -Id -1.255 -It message -Il 32 -If 0 -Ii 2 -Iv 32 
r -t 0.095872444 -Hs 21 -Hd -1 -Ni 21 -Nx 442.00 -Ny 282.00 -Nz 0.00 -Ne -1.000000 -Nl MAC -Nw --- -Ma 0 -Md ffffffff -Ms b -Mt 800 -Is 11.255 -Id -1.255 -It message -Il 32 -If 0 -Ii 2 -Iv 32 
r -t 0.095872444 -Hs 12 -Hd -1 -Ni 12 -Nx 492.00 -Ny 332.00 -Nz 0.00 -Ne -1.000000 -Nl MAC -Nw --- -Ma 0 -Md ffffffff -Ms b -Mt 800 -Is 11.255 -Id -1.255 -It message -Il 32 -If 0 -Ii 2 -Iv 32 
r -t 0.095872513 -Hs 20 -Hd -1 -Ni 20 -Nx 392.00 -Ny 282.00 -Nz 0.00 -Ne -1.000000 -Nl MAC -Nw --- -Ma 0 -Md ffffffff -Ms b -Mt 800 -Is 11.255 -Id -1.255 -It message -Il 32 -If 0 -Ii 2 -Iv 32 
r -t 0.095872513 -Hs 0 -Hd -1 -Ni 0 -Nx 392.00 -Ny 382.00 -Nz 0.00 -Ne -1.000000 -Nl MAC -Nw --- -Ma 0 -Md ffffffff -Ms b -Mt 800 -Is 11.255 -Id -1.255 -It message -Il 32 -If 0 -Ii 2 -Iv 32 
r -t 0.095872513 -Hs 2 -Hd -1 -Ni 2 -Nx 492.00 -Ny 382.00 -Nz 0.00 -Ne -1.000000 -Nl MAC -Nw --- -Ma 0 -Md ffffffff -Ms b -Mt 800 -Is 11.255 -Id -1.255 -It message -Il 32 -If 0 -Ii 2 -Iv 32 
r -t 0.095872513 -Hs 22 -Hd -1 -Ni 22 -Nx 492.00 -Ny 282.00 -Nz 0.00 -Ne -1.000000 -Nl MAC -Nw --- -Ma 0 -Md ffffffff -Ms b -Mt 800 -Is 11.255 -Id -1.255 -It message -Il 32 -If 0 -Ii 2 -Iv 32 
r -t 0.095872611 -Hs 31 -Hd -1 -Ni 31 -Nx 442.00 -Ny 232.00 -Nz 0.00 -Ne -1.000000 -Nl MAC -Nw --- -Ma 0 -Md ffffffff -Ms b -Mt 800 -Is 11.255 -Id -1.255 -It message -Il 32 -If 0 -Ii 2 -Iv 32 
r -t 0.095872611 -Hs 13 -Hd -1 -Ni 13 -Nx 542.00 -Ny 332.00 -Nz 0.00 -Ne -1.000000 -Nl MAC -Nw --- -Ma 0 -Md ffffffff -Ms b -Mt 800 -Is 11.255 -Id -1.255 -It message -Il 32 -If 0 -Ii 2 -Iv 32 
r -t 0.095872650 -Hs 30 -Hd -1 -Ni 30 -Nx 392.00 -Ny 232.00 -Nz 0.00 -Ne -1.000000 -Nl MAC -Nw --- -Ma 0 -Md ffffffff -Ms b -Mt 800 -Is 11.255 -Id -1.255 -It message -Il 32 -If 0 -Ii 2 -Iv 32 
r -t 0.095872650 -Hs 32 -Hd -1 -Ni 32 -Nx 492.00 -Ny 232.00 -Nz 0.00 -Ne -1.000000 -Nl MAC -Nw --- -Ma 0 -Md ffffffff -Ms b -Mt 800 -Is 11.255 -Id -1.255 -It message -Il 32 -If 0 -Ii 2 -Iv 32 
r -t 0.095872650 -Hs 3 -Hd -1 -Ni 3 -Nx 542.00 -Ny 382.00 -Nz 0.00 -Ne -1.000000 -Nl MAC -Nw --- -Ma 0 -Md ffffffff -Ms b -Mt 800 -Is 11.255 -Id -1.255 -It message -Il 32 -If 0 -Ii 2 -Iv 32 
r -t 0.095872650 -Hs 23 -Hd -1 -Ni 23 -Nx 542.00 -Ny 282.00 -Nz 0.00 -Ne -1.000000 -Nl MAC -Nw --- -Ma 0 -Md ffffffff -Ms b -Mt 800 -Is 11.255 -Id -1.255 -It message -Il 32 -If 0 -Ii 2 -Iv 32 
r -t 0.095872749 -Hs 33 -Hd -1 -Ni 33 -Nx 542.00 -Ny 232.00 -Nz 0.00 -Ne -1.000000 -Nl MAC -Nw --- -Ma 0 -Md ffffffff -Ms b -Mt 800 -Is 11.255 -Id -1.255 -It message -Il 32 -If 0 -Ii 2 -Iv 32 
r -t 0.095872777 -Hs 41 -Hd -1 -Ni 41 -Nx 442.00 -Ny 182.00 -Nz 0.00 -Ne -1.000000 -Nl MAC -Nw --- -Ma 0 -Md ffffffff -Ms b -Mt 800 -Is 11.255 -Id -1.255 -It message -Il 32 -If 0 -Ii 2 -Iv 32 
r -t 0.095872777 -Hs 14 -Hd -1 -Ni 14 -Nx 592.00 -Ny 332.00 -Nz 0.00 -Ne -1.000000 -Nl MAC -Nw --- -Ma 0 -Md ffffffff -Ms b -Mt 800 -Is 11.255 -Id -1.255 -It message -Il 32 -If 0 -Ii 2 -Iv 32 
r -t 0.095872804 -Hs 40 -Hd -1 -Ni 40 -Nx 392.00 -Ny 182.00 -Nz 0.00 -Ne -1.000000 -Nl MAC -Nw --- -Ma 0 -Md ffffffff -Ms b -Mt 800 -Is 11.255 -Id -1.255 -It message -Il 32 -If 0 -Ii 2 -Iv 32 
r -t 0.095872804 -Hs 42 -Hd -1 -Ni 42 -Nx 492.00 -Ny 182.00 -Nz 0.00 -Ne -1.000000 -Nl MAC -Nw --- -Ma 0 -Md ffffffff -Ms b -Mt 800 -Is 11.255 -Id -1.255 -It message -Il 32 -If 0 -Ii 2 -Iv 32 
r -t 0.095872804 -Hs 4 -Hd -1 -Ni 4 -Nx 592.00 -Ny 382.00 -Nz 0.00 -Ne -1.000000 -Nl MAC -Nw --- -Ma 0 -Md ffffffff -Ms b -Mt 800 -Is 11.255 -Id -1.255 -It message -Il 32 -If 0 -Ii 2 -Iv 32 
r -t 0.095872804 -Hs 24 -Hd -1 -Ni 24 -Nx 592.00 -Ny 282.00 -Nz 0.00 -Ne -1.000000 -Nl MAC -Nw --- -Ma 0 -Md ffffffff -Ms b -Mt 800 -Is 11.255 -Id -1.255 -It message -Il 32 -If 0 -Ii 2 -Iv 32 
r -t 0.095872878 -Hs 43 -Hd -1 -Ni 43 -Nx 542.00 -Ny 182.00 -Nz 0.00 -Ne -1.000000 -Nl MAC -Nw --- -Ma 0 -Md ffffffff -Ms b -Mt 800 -Is 11.255 -Id -1.255 -It message -Il 32 -If 0 -Ii 2 -Iv 32 
r -t 0.095872878 -Hs 34 -Hd -1 -Ni 34 -Nx 592.00 -Ny 232.00 -Nz 0.00 -Ne -1.000000 -Nl MAC -Nw --- -Ma 0 -Md ffffffff -Ms b -Mt 800 -Is 11.255 -Id -1.255 -It message -Il 32 -If 0 -Ii 2 -Iv 32 
r -t 0.095872944 -Hs 15 -Hd -1 -Ni 15 -Nx 642.00 -Ny 332.00 -Nz 0.00 -Ne -1.000000 -Nl MAC -Nw --- -Ma 0 -Md ffffffff -Ms b -Mt 800 -Is 11.255 -Id -1.255 -It message -Il 32 -If 0 -Ii 2 -Iv 32 
r -t 0.095872965 -Hs 5 -Hd -1 -Ni 5 -Nx 642.00 -Ny 382.00 -Nz 0.00 -Ne -1.000000 -Nl MAC -Nw --- -Ma 0 -Md ffffffff -Ms b -Mt 800 -Is 11.255 -Id -1.255 -It message -Il 32 -If 0 -Ii 2 -Iv 32 
r -t 0.095872965 -Hs 25 -Hd -1 -Ni 25 -Nx 642.00 -Ny 282.00 -Nz 0.00 -Ne -1.000000 -Nl MAC -Nw --- -Ma 0 -Md ffffffff -Ms b -Mt 800 -Is 11.255 -Id -1.255 -It message -Il 32 -If 0 -Ii 2 -Iv 32 
r -t 0.095872984 -Hs 44 -Hd -1 -Ni 44 -Nx 592.00 -Ny 182.00 -Nz 0.00 -Ne -1.000000 -Nl MAC -Nw --- -Ma 0 -Md ffffffff -Ms b -Mt 800 -Is 11.255 -Id -1.255 -It message -Il 32 -If 0 -Ii 2 -Iv 32 
r -t 0.095873023 -Hs 35 -Hd -1 -Ni 35 -Nx 642.00 -Ny 232.00 -Nz 0.00 -Ne -1.000000 -Nl MAC -Nw --- -Ma 0 -Md ffffffff -Ms b -Mt 800 -Is 11.255 -Id -1.255 -It message -Il 32 -If 0 -Ii 2 -Iv 32 
r -t 0.095873111 -Hs 45 -Hd -1 -Ni 45 -Nx 642.00 -Ny 182.00 -Nz 0.00 -Ne -1.000000 -Nl MAC -Nw --- -Ma 0 -Md ffffffff -Ms b -Mt 800 -Is 11.255 -Id -1.255 -It message -Il 32 -If 0 -Ii 2 -Iv 32 
r -t 0.095873111 -Hs 16 -Hd -1 -Ni 16 -Nx 692.00 -Ny 332.00 -Nz 0.00 -Ne -1.000000 -Nl MAC -Nw --- -Ma 0 -Md ffffffff -Ms b -Mt 800 -Is 11.255 -Id -1.255 -It message -Il 32 -If 0 -Ii 2 -Iv 32 
r -t 0.095897444 -Hs 1 -Hd -1 -Ni 1 -Nx 442.00 -Ny 382.00 -Nz 0.00 -Ne -1.000000 -Nl RTR -Nw --- -Ma 0 -Md ffffffff -Ms b -Mt 800 -Is 11.255 -Id -1.255 -It message -Il 32 -If 0 -Ii 2 -Iv 32 
r -t 0.095897444 -Hs 10 -Hd -1 -Ni 10 -Nx 392.00 -Ny 332.00 -Nz 0.00 -Ne -1.000000 -Nl RTR -Nw --- -Ma 0 -Md ffffffff -Ms b -Mt 800 -Is 11.255 -Id -1.255 -It message -Il 32 -If 0 -Ii 2 -Iv 32 
r -t 0.095897444 -Hs 21 -Hd -1 -Ni 21 -Nx 442.00 -Ny 282.00 -Nz 0.00 -Ne -1.000000 -Nl RTR -Nw --- -Ma 0 -Md ffffffff -Ms b -Mt 800 -Is 11.255 -Id -1.255 -It message -Il 32 -If 0 -Ii 2 -Iv 32 