s -t 0.030050775 -Hs 0 -Hd -1 -Ni 0 -Nx 289.00 -Ny 394.00 -Nz 0.00 -Ne -1.000000 -Nl RTR -Nw --- -Ma 0 -Md 0 -Ms 0 -Mt 0 -Is 0.255 -Id -1.255 -It message -Il 32 -If 0 -Ii 0 -Iv 32 
s -t 0.030285775 -Hs 0 -Hd -1 -Ni 0 -Nx 289.00 -Ny 394.00 -Nz 0.00 -Ne -1.000000 -Nl MAC -Nw --- -Ma 0 -Md ffffffff -Ms 0 -Mt 800 -Is 0.255 -Id -1.255 -It message -Il 90 -If 0 -Ii 0 -Iv 32 
r -t 0.031005942 -Hs 5 -Hd -1 -Ni 5 -Nx 289.00 -Ny 344.00 -Nz 0.00 -Ne -1.000000 -Nl MAC -Nw --- -Ma 0 -Md ffffffff -Ms 0 -Mt 800 -Is 0.255 -Id -1.255 -It message -Il 32 -If 0 -Ii 0 -Iv 32 
r -t 0.031005942 -Hs 1 -Hd -1 -Ni 1 -Nx 339.00 -Ny 394.00 -Nz 0.00 -Ne -1.000000 -Nl MAC -Nw --- -Ma 0 -Md ffffffff -Ms 0 -Mt 800 -Is 0.255 -Id -1.255 -It message -Il 32 -If 0 -Ii 0 -Iv 32 
r -t 0.031006011 -Hs 6 -Hd -1 -Ni 6 -Nx 339.00 -Ny 344.00 -Nz 0.00 -Ne -1.000000 -Nl MAC -Nw --- -Ma 0 -Md ffffffff -Ms 0 -Mt 800 -Is 0.255 -Id -1.255 -It message -Il 32 -If 0 -Ii 0 -Iv 32 
r -t 0.031006109 -Hs 2 -Hd -1 -Ni 2 -Nx 389.00 -Ny 394.00 -Nz 0.00 -Ne -1.000000 -Nl MAC -Nw --- -Ma 0 -Md ffffffff -Ms 0 -Mt 800 -Is 0.255 -Id -1.255 -It message -Il 32 -If 0 -Ii 0 -Iv 32 
r -t 0.031006148 -Hs 7 -Hd -1 -Ni 7 -Nx 389.00 -Ny 344.00 -Nz 0.00 -Ne -1.000000 -Nl MAC -Nw --- -Ma 0 -Md ffffffff -Ms 0 -Mt 800 -Is 0.255 -Id -1.255 -It message -Il 32 -If 0 -Ii 0 -Iv 32 
r -t 0.031006275 -Hs 3 -Hd -1 -Ni 3 -Nx 439.00 -Ny 394.00 -Nz 0.00 -Ne -1.000000 -Nl MAC -Nw --- -Ma 0 -Md ffffffff -Ms 0 -Mt 800 -Is 0.255 -Id -1.255 -It message -Il 32 -If 0 -Ii 0 -Iv 32 
r -t 0.031006302 -Hs 8 -Hd -1 -Ni 8 -Nx 439.00 -Ny 344.00 -Nz 0.00 -Ne -1.000000 -Nl MAC -Nw --- -Ma 0 -Md ffffffff -Ms 0 -Mt 800 -Is 0.255 -Id -1.255 -It message -Il 32 -If 0 -Ii 0 -Iv 32 
r -t 0.031006442 -Hs 4 -Hd -1 -Ni 4 -Nx 489.00 -Ny 394.00 -Nz 0.00 -Ne -1.000000 -Nl MAC -Nw --- -Ma 0 -Md ffffffff -Ms 0 -Mt 800 -Is 0.255 -Id -1.255 -It message -Il 32 -If 0 -Ii 0 -Iv 32 
r -t 0.031006463 -Hs 9 -Hd -1 -Ni 9 -Nx 489.00 -Ny 344.00 -Nz 0.00 -Ne -1.000000 -Nl MAC -Nw --- -Ma 0 -Md ffffffff -Ms 0 -Mt 800 -Is 0.255 -Id -1.255 -It message -Il 32 -If 0 -Ii 0 -Iv 32 
r -t 0.031030942 -Hs 5 -Hd -1 -Ni 5 -Nx 289.00 -Ny 344.00 -Nz 0.00 -Ne -1.000000 -Nl RTR -Nw --- -Ma 0 -Md ffffffff -Ms 0 -Mt 800 -Is 0.255 -Id -1.255 -It message -Il 32 -If 0 -Ii 0 -Iv 32 
r -t 0.031030942 -Hs 1 -Hd -1 -Ni 1 -Nx 339.00 -Ny 394.00 -Nz 0.00 -Ne -1.000000 -Nl RTR -Nw --- -Ma 0 -Md ffffffff -Ms 0 -Mt 800 -Is 0.255 -Id -1.255 -It message -Il 32 -If 0 -Ii 0 -Iv 32 
r -t 0.031031011 -Hs 6 -Hd -1 -Ni 6 -Nx 339.00 -Ny 344.00 -Nz 0.00 -Ne -1.000000 -Nl RTR -Nw --- -Ma 0 -Md ffffffff -Ms 0 -Mt 800 -Is 0.255 -Id -1.255 -It message -Il 32 -If 0 -Ii 0 -Iv 32 
r -t 0.031031109 -Hs 2 -Hd -1 -Ni 2 -Nx 389.00 -Ny 394.00 -Nz 0.00 -Ne -1.000000 -Nl RTR -Nw --- -Ma 0 -Md ffffffff -Ms 0 -Mt 800 -Is 0.255 -Id -1.255 -It message -Il 32 -If 0 -Ii 0 -Iv 32 
r -t 0.031031148 -Hs 7 -Hd -1 -Ni 7 -Nx 389.00 -Ny 344.00 -Nz 0.00 -Ne -1.000000 -Nl RTR -Nw --- -Ma 0 -Md ffffffff -Ms 0 -Mt 800 -Is 0.255 -Id -1.255 -It message -Il 32 -If 0 -Ii 0 -Iv 32 
r -t 0.031031275 -Hs 3 -Hd -1 -Ni 3 -Nx 439.00 -Ny 394.00 -Nz 0.00 -Ne -1.000000 -Nl RTR -Nw --- -Ma 0 -Md ffffffff -Ms 0 -Mt 800 -Is 0.255 -Id -1.255 -It message -Il 32 -If 0 -Ii 0 -Iv 32 
r -t 0.031031302 -Hs 8 -Hd -1 -Ni 8 -Nx 439.00 -Ny 344.00 -Nz 0.00 -Ne -1.000000 -Nl RTR -Nw --- -Ma 0 -Md ffffffff -Ms 0 -Mt 800 -Is 0.255 -Id -1.255 -It message -Il 32 -If 0 -Ii 0 -Iv 32 
r -t 0.031031442 -Hs 4 -Hd -1 -Ni 4 -Nx 489.00 -Ny 394.00 -Nz 0.00 -Ne -1.000000 -Nl RTR -Nw --- -Ma 0 -Md ffffffff -Ms 0 -Mt 800 -Is 0.255 -Id -1.255 -It message -Il 32 -If 0 -Ii 0 -Iv 32 
r -t 0.031031463 -Hs 9 -Hd -1 -Ni 9 -Nx 489.00 -Ny 344.00 -Nz 0.00 -Ne -1.000000 -Nl RTR -Nw --- -Ma 0 -Md ffffffff -Ms 0 -Mt 800 -Is 0.255 -Id -1.255 -It message -Il 32 -If 0 -Ii 0 -Iv 32 
s -t 0.184842620 -Hs 1 -Hd -1 -Ni 1 -Nx 339.00 -Ny 394.00 -Nz 0.00 -Ne -1.000000 -Nl RTR -Nw --- -Ma 0 -Md 0 -Ms 0 -Mt 0 -Is 1.255 -Id -1.255 -It message -Il 32 -If 0 -Ii 1 -Iv 32 
s -t 0.185397620 -Hs 1 -Hd -1 -Ni 1 -Nx 339.00 -Ny 394.00 -Nz 0.00 -Ne -1.000000 -Nl MAC -Nw --- -Ma 0 -Md ffffffff -Ms 1 -Mt 800 -Is 1.255 -Id -1.255 -It message -Il 90 -If 0 -Ii 1 -Iv 32 
r -t 0.186117786 -Hs 0 -Hd -1 -Ni 0 -Nx 289.00 -Ny 394.00 -Nz 0.00 -Ne -1.000000 -Nl MAC -Nw --- -Ma 0 -Md ffffffff -Ms 1 -Mt 800 -Is 1.255 -Id -1.255 -It message -Il 32 -If 0 -Ii 1 -Iv 32 
r -t 0.186117786 -Hs 6 -Hd -1 -Ni 6 -Nx 339.00 -Ny 344.00 -Nz 0.00 -Ne -1.000000 -Nl MAC -Nw --- -Ma 0 -Md ffffffff -Ms 1 -Mt 800 -Is 1.255 -Id -1.255 -It message -Il 32 -If 0 -Ii 1 -Iv 32 
r -t 0.186117786 -Hs 2 -Hd -1 -Ni 2 -Nx 389.00 -Ny 394.00 -Nz 0.00 -Ne -1.000000 -Nl MAC -Nw --- -Ma 0 -Md ffffffff -Ms 1 -Mt 800 -Is 1.255 -Id -1.255 -It message -Il 32 -If 0 -Ii 1 -Iv 32 
r -t 0.186117855 -Hs 5 -Hd -1 -Ni 5 -Nx 289.00 -Ny 344.00 -Nz 0.00 -Ne -1.000000 -Nl MAC -Nw --- -Ma 0 -Md ffffffff -Ms 1 -Mt 800 -Is 1.255 -Id -1.255 -It message -Il 32 -If 0 -Ii 1 -Iv 32 
r -t 0.186117855 -Hs 7 -Hd -1 -Ni 7 -Nx 389.00 -Ny 344.00 -Nz 0.00 -Ne -1.000000 -Nl MAC -Nw --- -Ma 0 -Md ffffffff -Ms 1 -Mt 800 -Is 1.255 -Id -1.255 -It message -Il 32 -If 0 -Ii 1 -Iv 32 
r -t 0.186117953 -Hs 3 -Hd -1 -Ni 3 -Nx 439.00 -Ny 394.00 -Nz 0.00 -Ne -1.000000 -Nl MAC -Nw --- -Ma 0 -Md ffffffff -Ms 1 -Mt 800 -Is 1.255 -Id -1.255 -It message -Il 32 -If 0 -Ii 1 -Iv 32 
r -t 0.186117992 -Hs 8 -Hd -1 -Ni 8 -Nx 439.00 -Ny 344.00 -Nz 0.00 -Ne -1.000000 -Nl MAC -Nw --- -Ma 0 -Md ffffffff -Ms 1 -Mt 800 -Is 1.255 -Id -1.255 -It message -Il 32 -If 0 -Ii 1 -Iv 32 
r -t 0.186118120 -Hs 4 -Hd -1 -Ni 4 -Nx 489.00 -Ny 394.00 -Nz 0.00 -Ne -1.000000 -Nl MAC -Nw --- -Ma 0 -Md ffffffff -Ms 1 -Mt 800 -Is 1.255 -Id -1.255 -It message -Il 32 -If 0 -Ii 1 -Iv 32 
r -t 0.186118147 -Hs 9 -Hd -1 -Ni 9 -Nx 489.00 -Ny 344.00 -Nz 0.00 -Ne -1.000000 -Nl MAC -Nw --- -Ma 0 -Md ffffffff -Ms 1 -Mt 800 -Is 1.255 -Id -1.255 -It message -Il 32 -If 0 -Ii 1 -Iv 32 
r -t 0.186142786 -Hs 0 -Hd -1 -Ni 0 -Nx 289.00 -Ny 394.00 -Nz 0.00 -Ne -1.000000 -Nl RTR -Nw --- -Ma 0 -Md ffffffff -Ms 1 -Mt 800 -Is 1.255 -Id -1.255 -It message -Il 32 -If 0 -Ii 1 -Iv 32 
r -t 0.186142786 -Hs 6 -Hd -1 -Ni 6 -Nx 339.00 -Ny 344.00 -Nz 0.00 -Ne -1.000000 -Nl RTR -Nw --- -Ma 0 -Md ffffffff -Ms 1 -Mt 800 -Is 1.255 -Id -1.255 -It message -Il 32 -If 0 -Ii 1 -Iv 32 
r -t 0.186142786 -Hs 2 -Hd -1 -Ni 2 -Nx 389.00 -Ny 394.00 -Nz 0.00 -Ne -1.000000 -Nl RTR -Nw --- -Ma 0 -Md ffffffff -Ms 1 -Mt 800 -Is 1.255 -Id -1.255 -It message -Il 32 -If 0 -Ii 1 -Iv 32 
r -t 0.186142855 -Hs 5 -Hd -1 -Ni 5 -Nx 289.00 -Ny 344.00 -Nz 0.00 -Ne -1.000000 -Nl RTR -Nw --- -Ma 0 -Md ffffffff -Ms 1 -Mt 800 -Is 1.255 -Id -1.255 -It message -Il 32 -If 0 -Ii 1 -Iv 32 
r -t 0.186142855 -Hs 7 -Hd -1 -Ni 7 -Nx 389.00 -Ny 344.00 -Nz 0.00 -Ne -1.000000 -Nl RTR -Nw --- -Ma 0 -Md ffffffff -Ms 1 -Mt 800 -Is 1.255 -Id -1.255 -It message -Il 32 -If 0 -Ii 1 -Iv 32 
r -t 0.186142953 -Hs 3 -Hd -1 -Ni 3 -Nx 439.00 -Ny 394.00 -Nz 0.00 -Ne -1.000000 -Nl RTR -Nw --- -Ma 0 -Md ffffffff -Ms 1 -Mt 800 -Is 1.255 -Id -1.255 -It message -Il 32 -If 0 -Ii 1 -Iv 32 
r -t 0.186142992 -Hs 8 -Hd -1 -Ni 8 -Nx 439.00 -Ny 344.00 -Nz 0.00 -Ne -1.000000 -Nl RTR -Nw --- -Ma 0 -Md ffffffff -Ms 1 -Mt 800 -Is 1.255 -Id -1.255 -It message -Il 32 -If 0 -Ii 1 -Iv 32 
r -t 0.186143120 -Hs 4 -Hd -1 -Ni 4 -Nx 489.00 -Ny 394.00 -Nz 0.00 -Ne -1.000000 -Nl RTR -Nw --- -Ma 0 -Md ffffffff -Ms 1 -Mt 800 -Is 1.255 -Id -1.255 -It message -Il 32 -If 0 -Ii 1 -Iv 32 
r -t 0.186143147 -Hs 9 -Hd -1 -Ni 9 -Nx 489.00 -Ny 344.00 -Nz 0.00 -Ne -1.000000 -Nl RTR -Nw --- -Ma 0 -Md ffffffff -Ms 1 -Mt 800 -Is 1.255 -Id -1.255 -It message -Il 32 -If 0 -Ii 1 -Iv 32 
s -t 0.477273789 -Hs 6 -Hd -1 -Ni 6 -Nx 339.00 -Ny 344.00 -Nz 0.00 -Ne -1.000000 -Nl RTR -Nw --- -Ma 0 -Md 0 -Ms 0 -Mt 0 -Is 6.255 -Id -1.255 -It message -Il 32 -If 0 -Ii 2 -Iv 32 
s -t 0.477568789 -Hs 6 -Hd -1 -Ni 6 -Nx 339.00 -Ny 344.00 -Nz 0.00 -Ne -1.000000 -Nl MAC -Nw --- -Ma 0 -Md ffffffff -Ms 6 -Mt 800 -Is 6.255 -Id -1.255 -It message -Il 90 -If 0 -Ii 2 -Iv 32 
r -t 0.478288956 -Hs 1 -Hd -1 -Ni 1 -Nx 339.00 -Ny 394.00 -Nz 0.00 -Ne -1.000000 -Nl MAC -Nw --- -Ma 0 -Md ffffffff -Ms 6 -Mt 800 -Is 6.255 -Id -1.255 -It message -Il 32 -If 0 -Ii 2 -Iv 32 
r -t 0.478288956 -Hs 5 -Hd -1 -Ni 5 -Nx 289.00 -Ny 344.00 -Nz 0.00 -Ne -1.000000 -Nl MAC -Nw --- -Ma 0 -Md ffffffff -Ms 6 -Mt 800 -Is 6.255 -Id -1.255 -It message -Il 32 -If 0 -Ii 2 -Iv 32 
r -t 0.478288956 -Hs 7 -Hd -1 -Ni 7 -Nx 389.00 -Ny 344.00 -Nz 0.00 -Ne -1.000000 -Nl MAC -Nw --- -Ma 0 -Md ffffffff -Ms 6 -Mt 800 -Is 6.255 -Id -1.255 -It message -Il 32 -If 0 -Ii 2 -Iv 32 
r -t 0.478289025 -Hs 0 -Hd -1 -Ni 0 -Nx 289.00 -Ny 394.00 -Nz 0.00 -Ne -1.000000 -Nl MAC -Nw --- -Ma 0 -Md ffffffff -Ms 6 -Mt 800 -Is 6.255 -Id -1.255 -It message -Il 32 -If 0 -Ii 2 -Iv 32 
r -t 0.478289025 -Hs 2 -Hd -1 -Ni 2 -Nx 389.00 -Ny 394.00 -Nz 0.00 -Ne -1.000000 -Nl MAC -Nw --- -Ma 0 -Md ffffffff -Ms 6 -Mt 800 -Is 6.255 -Id -1.255 -It message -Il 32 -If 0 -Ii 2 -Iv 32 
r -t 0.478289123 -Hs 8 -Hd -1 -Ni 8 -Nx 439.00 -Ny 344.00 -Nz 0.00 -Ne -1.000000 -Nl MAC -Nw --- -Ma 0 -Md ffffffff -Ms 6 -Mt 800 -Is 6.255 -Id -1.255 -It message -Il 32 -If 0 -Ii 2 -Iv 32 
r -t 0.478289162 -Hs 3 -Hd -1 -Ni 3 -Nx 439.00 -Ny 394.00 -Nz 0.00 -Ne -1.000000 -Nl MAC -Nw --- -Ma 0 -Md ffffffff -Ms 6 -Mt 800 -Is 6.255 -Id -1.255 -It message -Il 32 -If 0 -Ii 2 -Iv 32 
r -t 0.478289289 -Hs 9 -Hd -1 -Ni 9 -Nx 489.00 -Ny 344.00 -Nz 0.00 -Ne -1.000000 -Nl MAC -Nw --- -Ma 0 -Md ffffffff -Ms 6 -Mt 800 -Is 6.255 -Id -1.255 -It message -Il 32 -If 0 -Ii 2 -Iv 32 
r -t 0.478289316 -Hs 4 -Hd -1 -Ni 4 -Nx 489.00 -Ny 394.00 -Nz 0.00 -Ne -1.000000 -Nl MAC -Nw --- -Ma 0 -Md ffffffff -Ms 6 -Mt 800 -Is 6.255 -Id -1.255 -It message -Il 32 -If 0 -Ii 2 -Iv 32 
r -t 0.478313956 -Hs 1 -Hd -1 -Ni 1 -Nx 339.00 -Ny 394.00 -Nz 0.00 -Ne -1.000000 -Nl RTR -Nw --- -Ma 0 -Md ffffffff -Ms 6 -Mt 800 -Is 6.255 -Id -1.255 -It message -Il 32 -If 0 -Ii 2 -Iv 32 
r -t 0.478313956 -Hs 5 -Hd -1 -Ni 5 -Nx 289.00 -Ny 344.00 -Nz 0.00 -Ne -1.000000 -Nl RTR -Nw --- -Ma 0 -Md ffffffff -Ms 6 -Mt 800 -Is 6.255 -Id -1.255 -It message -Il 32 -If 0 -Ii 2 -Iv 32 
r -t 0.478313956 -Hs 7 -Hd -1 -Ni 7 -Nx 389.00 -Ny 344.00 -Nz 0.00 -Ne -1.000000 -Nl RTR -Nw --- -Ma 0 -Md ffffffff -Ms 6 -Mt 800 -Is 6.255 -Id -1.255 -It message -Il 32 -If 0 -Ii 2 -Iv 32 
r -t 0.478314025 -Hs 0 -Hd -1 -Ni 0 -Nx 289.00 -Ny 394.00 -Nz 0.00 -Ne -1.000000 -Nl RTR -Nw --- -Ma 0 -Md ffffffff -Ms 6 -Mt 800 -Is 6.255 -Id -1.255 -It message -Il 32 -If 0 -Ii 2 -Iv 32 
r -t 0.478314025 -Hs 2 -Hd -1 -Ni 2 -Nx 389.00 -Ny 394.00 -Nz 0.00 -Ne -1.000000 -Nl RTR -Nw --- -Ma 0 -Md ffffffff -Ms 6 -Mt 800 -Is 6.255 -Id -1.255 -It message -Il 32 -If 0 -Ii 2 -Iv 32 
r -t 0.478314123 -Hs 8 -Hd -1 -Ni 8 -Nx 439.00 -Ny 344.00 -Nz 0.00 -Ne -1.000000 -Nl RTR -Nw --- -Ma 0 -Md ffffffff -Ms 6 -Mt 800 -Is 6.255 -Id -1.255 -It message -Il 32 -If 0 -Ii 2 -Iv 32 
r -t 0.478314162 -Hs 3 -Hd -1 -Ni 3 -Nx 439.00 -Ny 394.00 -Nz 0.00 -Ne -1.000000 -Nl RTR -Nw --- -Ma 0 -Md ffffffff -Ms 6 -Mt 800 -Is 6.255 -Id -1.255 -It message -Il 32 -If 0 -Ii 2 -Iv 32 
r -t 0.478314289 -Hs 9 -Hd -1 -Ni 9 -Nx 489.00 -Ny 344.00 -Nz 0.00 -Ne -1.000000 -Nl RTR -Nw --- -Ma 0 -Md ffffffff -Ms 6 -Mt 800 -Is 6.255 -Id -1.255 -It message -Il 32 -If 0 -Ii 2 -Iv 32 
r -t 0.478314316 -Hs 4 -Hd -1 -Ni 4 -Nx 489.00 -Ny 394.00 -Nz 0.00 -Ne -1.000000 -Nl RTR -Nw --- -Ma 0 -Md ffffffff -Ms 6 -Mt 800 -Is 6.255 -Id -1.255 -It message -Il 32 -If 0 -Ii 2 -Iv 32 
s -t 0.623344604 -Hs 8 -Hd -1 -Ni 8 -Nx 439.00 -Ny 344.00 -Nz 0.00 -Ne -1.000000 -Nl RTR -Nw --- -Ma 0 -Md 0 -Ms 0 -Mt 0 -Is 8.255 -Id -1.255 -It message -Il 32 -If 0 -Ii 3 -Iv 32 
s -t 0.623599604 -Hs 8 -Hd -1 -Ni 8 -Nx 439.00 -Ny 344.00 -Nz 0.00 -Ne -1.000000 -Nl MAC -Nw --- -Ma 0 -Md ffffffff -Ms 8 -Mt 800 -Is 8.255 -Id -1.255 -It message -Il 90 -If 0 -Ii 3 -Iv 32 
r -t 0.624319770 -Hs 3 -Hd -1 -Ni 3 -Nx 439.00 -Ny 394.00 -Nz 0.00 -Ne -1.000000 -Nl MAC -Nw --- -Ma 0 -Md ffffffff -Ms 8 -Mt 800 -Is 8.255 -Id -1.255 -It message -Il 32 -If 0 -Ii 3 -Iv 32 
r -t 0.624319770 -Hs 7 -Hd -1 -Ni 7 -Nx 389.00 -Ny 344.00 -Nz 0.00 -Ne -1.000000 -Nl MAC -Nw --- -Ma 0 -Md ffffffff -Ms 8 -Mt 800 -Is 8.255 -Id -1.255 -It message -Il 32 -If 0 -Ii 3 -Iv 32 
r -t 0.624319770 -Hs 9 -Hd -1 -Ni 9 -Nx 489.00 -Ny 344.00 -Nz 0.00 -Ne -1.000000 -Nl MAC -Nw --- -Ma 0 -Md ffffffff -Ms 8 -Mt 800 -Is 8.255 -Id -1.255 -It message -Il 32 -If 0 -Ii 3 -Iv 32 
r -t 0.624319839 -Hs 2 -Hd -1 -Ni 2 -Nx 389.00 -Ny 394.00 -Nz 0.00 -Ne -1.000000 -Nl MAC -Nw --- -Ma 0 -Md ffffffff -Ms 8 -Mt 800 -Is 8.255 -Id -1.255 -It message -Il 32 -If 0 -Ii 3 -Iv 32 
r -t 0.624319839 -Hs 4 -Hd -1 -Ni 4 -Nx 489.00 -Ny 394.00 -Nz 0.00 -Ne -1.000000 -Nl MAC -Nw --- -Ma 0 -Md ffffffff -Ms 8 -Mt 800 -Is 8.255 -Id -1.255 -It message -Il 32 -If 0 -Ii 3 -Iv 32 
r -t 0.624319937 -Hs 6 -Hd -1 -Ni 6 -Nx 339.00 -Ny 344.00 -Nz 0.00 -Ne -1.000000 -Nl MAC -Nw --- -Ma 0 -Md ffffffff -Ms 8 -Mt 800 -Is 8.255 -Id -1.255 -It message -Il 32 -If 0 -Ii 3 -Iv 32 
r -t 0.624319976 -Hs 1 -Hd -1 -Ni 1 -Nx 339.00 -Ny 394.00 -Nz 0.00 -Ne -1.000000 -Nl MAC -Nw --- -Ma 0 -Md ffffffff -Ms 8 -Mt 800 -Is 8.255 -Id -1.255 -It message -Il 32 -If 0 -Ii 3 -Iv 32 
r -t 0.624320104 -Hs 5 -Hd -1 -Ni 5 -Nx 289.00 -Ny 344.00 -Nz 0.00 -Ne -1.000000 -Nl MAC -Nw --- -Ma 0 -Md ffffffff -Ms 8 -Mt 800 -Is 8.255 -Id -1.255 -It message -Il 32 -If 0 -Ii 3 -Iv 32 
r -t 0.624320131 -Hs 0 -Hd -1 -Ni 0 -Nx 289.00 -Ny 394.00 -Nz 0.00 -Ne -1.000000 -Nl MAC -Nw --- -Ma 0 -Md ffffffff -Ms 8 -Mt 800 -Is 8.255 -Id -1.255 -It message -Il 32 -If 0 -Ii 3 -Iv 32 
r -t 0.624344770 -Hs 3 -Hd -1 -Ni 3 -Nx 439.00 -Ny 394.00 -Nz 0.00 -Ne -1.000000 -Nl RTR -Nw --- -Ma 0 -Md ffffffff -Ms 8 -Mt 800 -Is 8.255 -Id -1.255 -It message -Il 32 -If 0 -Ii 3 -Iv 32 
r -t 0.624344770 -Hs 7 -Hd -1 -Ni 7 -Nx 389.00 -Ny 344.00 -Nz 0.00 -Ne -1.000000 -Nl RTR -Nw --- -Ma 0 -Md ffffffff -Ms 8 -Mt 800 -Is 8.255 -Id -1.255 -It message -Il 32 -If 0 -Ii 3 -Iv 32 
r -t 0.624344770 -Hs 9 -Hd -1 -Ni 9 -Nx 489.00 -Ny 344.00 -Nz 0.00 -Ne -1.000000 -Nl RTR -Nw --- -Ma 0 -Md ffffffff -Ms 8 -Mt 800 -Is 8.255 -Id -1.255 -It message -Il 32 -If 0 -Ii 3 -Iv 32 
r -t 0.624344839 -Hs 2 -Hd -1 -Ni 2 -Nx 389.00 -Ny 394.00 -Nz 0.00 -Ne -1.000000 -Nl RTR -Nw --- -Ma 0 -Md ffffffff -Ms 8 -Mt 800 -Is 8.255 -Id -1.255 -It message -Il 32 -If 0 -Ii 3 -Iv 32 
r -t 0.624344839 -Hs 4 -Hd -1 -Ni 4 -Nx 489.00 -Ny 394.00 -Nz 0.00 -Ne -1.000000 -Nl RTR -Nw --- -Ma 0 -Md ffffffff -Ms 8 -Mt 800 -Is 8.255 -Id -1.255 -It message -Il 32 -If 0 -Ii 3 -Iv 32 
r -t 0.624344937 -Hs 6 -Hd -1 -Ni 6 -Nx 339.00 -Ny 344.00 -Nz 0.00 -Ne -1.000000 -Nl RTR -Nw --- -Ma 0 -Md ffffffff -Ms 8 -Mt 800 -Is 8.255 -Id -1.255 -It message -Il 32 -If 0 -Ii 3 -Iv 32 
r -t 0.624344976 -Hs 1 -Hd -1 -Ni 1 -Nx 339.00 -Ny 394.00 -Nz 0.00 -Ne -1.000000 -Nl RTR -Nw --- -Ma 0 -Md ffffffff -Ms 8 -Mt 800 -Is 8.255 -Id -1.255 -It message -Il 32 -If 0 -Ii 3 -Iv 32 
r -t 0.624345104 -Hs 5 -Hd -1 -Ni 5 -Nx 289.00 -Ny 344.00 -Nz 0.00 -Ne -1.000000 -Nl RTR -Nw --- -Ma 0 -Md ffffffff -Ms 8 -Mt 800 -Is 8.255 -Id -1.255 -It message -Il 32 -If 0 -Ii 3 -Iv 32 
r -t 0.624345131 -Hs 0 -Hd -1 -Ni 0 -Nx 289.00 -Ny 394.00 -Nz 0.00 -Ne -1.000000 -Nl RTR -Nw --- -Ma 0 -Md ffffffff -Ms 8 -Mt 800 -Is 8.255 -Id -1.255 -It message -Il 32 -If 0 -Ii 3 -Iv 32 
s -t 0.634321795 -Hs 4 -Hd -1 -Ni 4 -Nx 489.00 -Ny 394.00 -Nz 0.00 -Ne -1.000000 -Nl RTR -Nw --- -Ma 0 -Md 0 -Ms 0 -Mt 0 -Is 4.255 -Id -1.255 -It message -Il 32 -If 0 -Ii 4 -Iv 32 
s -t 0.634756795 -Hs 4 -Hd -1 -Ni 4 -Nx 489.00 -Ny 394.00 -Nz 0.00 -Ne -1.000000 -Nl MAC -Nw --- -Ma 0 -Md ffffffff -Ms 4 -Mt 800 -Is 4.255 -Id -1.255 -It message -Il 90 -If 0 -Ii 4 -Iv 32 
r -t 0.635476962 -Hs 3 -Hd -1 -Ni 3 -Nx 439.00 -Ny 394.00 -Nz 0.00 -Ne -1.000000 -Nl MAC -Nw --- -Ma 0 -Md ffffffff -Ms 4 -Mt 800 -Is 4.255 -Id -1.255 -It message -Il 32 -If 0 -Ii 4 -Iv 32 
r -t 0.635476962 -Hs 9 -Hd -1 -Ni 9 -Nx 489.00 -Ny 344.00 -Nz 0.00 -Ne -1.000000 -Nl MAC -Nw --- -Ma 0 -Md ffffffff -Ms 4 -Mt 800 -Is 4.255 -Id -1.255 -It message -Il 32 -If 0 -Ii 4 -Iv 32 
r -t 0.635477031 -Hs 8 -Hd -1 -Ni 8 -Nx 439.00 -Ny 344.00 -Nz 0.00 -Ne -1.000000 -Nl MAC -Nw --- -Ma 0 -Md ffffffff -Ms 4 -Mt 800 -Is 4.255 -Id -1.255 -It message -Il 32 -If 0 -Ii 4 -Iv 32 
r -t 0.635477129 -Hs 2 -Hd -1 -Ni 2 -Nx 389.00 -Ny 394.00 -Nz 0.00 -Ne -1.000000 -Nl MAC -Nw --- -Ma 0 -Md ffffffff -Ms 4 -Mt 800 -Is 4.255 -Id -1.255 -It message -Il 32 -If 0 -Ii 4 -Iv 32 
r -t 0.635477168 -Hs 7 -Hd -1 -Ni 7 -Nx 389.00 -Ny 344.00 -Nz 0.00 -Ne -1.000000 -Nl MAC -Nw --- -Ma 0 -Md ffffffff -Ms 4 -Mt 800 -Is 4.255 -Id -1.255 -It message -Il 32 -If 0 -Ii 4 -Iv 32 
r -t 0.635477295 -Hs 1 -Hd -1 -Ni 1 -Nx 339.00 -Ny 394.00 -Nz 0.00 -Ne -1.000000 -Nl MAC -Nw --- -Ma 0 -Md ffffffff -Ms 4 -Mt 800 -Is 4.255 -Id -1.255 -It message -Il 32 -If 0 -Ii 4 -Iv 32 
r -t 0.635477322 -Hs 6 -Hd -1 -Ni 6 -Nx 339.00 -Ny 344.00 -Nz 0.00 -Ne -1.000000 -Nl MAC -Nw --- -Ma 0 -Md ffffffff -Ms 4 -Mt 800 -Is 4.255 -Id -1.255 -It message -Il 32 -If 0 -Ii 4 -Iv 32 
r -t 0.635477462 -Hs 0 -Hd -1 -Ni 0 -Nx 289.00 -Ny 394.00 -Nz 0.00 -Ne -1.000000 -Nl MAC -Nw --- -Ma 0 -Md ffffffff -Ms 4 -Mt 800 -Is 4.255 -Id -1.255 -It message -Il 32 -If 0 -Ii 4 -Iv 32 
r -t 0.635477482 -Hs 5 -Hd -1 -Ni 5 -Nx 289.00 -Ny 344.00 -Nz 0.00 -Ne -1.000000 -Nl MAC -Nw --- -Ma 0 -Md ffffffff -Ms 4 -Mt 800 -Is 4.255 -Id -1.255 -It message -Il 32 -If 0 -Ii 4 -Iv 32 
r -t 0.635501962 -Hs 3 -Hd -1 -Ni 3 -Nx 439.00 -Ny 394.00 -Nz 0.00 -Ne -1.000000 -Nl RTR -Nw --- -Ma 0 -Md ffffffff -Ms 4 -Mt 800 -Is 4.255 -Id -1.255 -It message -Il 32 -If 0 -Ii 4 -Iv 32 
r -t 0.635501962 -Hs 9 -Hd -1 -Ni 9 -Nx 489.00 -Ny 344.00 -Nz 0.00 -Ne -1.000000 -Nl RTR -Nw --- -Ma 0 -Md ffffffff -Ms 4 -Mt 800 -Is 4.255 -Id -1.255 -It message -Il 32 -If 0 -Ii 4 -Iv 32 
r -t 0.635502031 -Hs 8 -Hd -1 -Ni 8 -Nx 439.00 -Ny 344.00 -Nz 0.00 -Ne -1.000000 -Nl RTR -Nw --- -Ma 0 -Md ffffffff -Ms 4 -Mt 800 -Is 4.255 -Id -1.255 -It message -Il 32 -If 0 -Ii 4 -Iv 32 
r -t 0.635502129 -Hs 2 -Hd -1 -Ni 2 -Nx 389.00 -Ny 394.00 -Nz 0.00 -Ne -1.000000 -Nl RTR -Nw --- -Ma 0 -Md ffffffff -Ms 4 -Mt 800 -Is 4.255 -Id -1.255 -It message -Il 32 -If 0 -Ii 4 -Iv 32 
r -t 0.635502168 -Hs 7 -Hd -1 -Ni 7 -Nx 389.00 -Ny 344.00 -Nz 0.00 -Ne -1.000000 -Nl RTR -Nw --- -Ma 0 -Md ffffffff -Ms 4 -Mt 800 -Is 4.255 -Id -1.255 -It message -Il 32 -If 0 -Ii 4 -Iv 32 
r -t 0.635502295 -Hs 1 -Hd -1 -Ni 1 -Nx 339.00 -Ny 394.00 -Nz 0.00 -Ne -1.000000 -Nl RTR -Nw --- -Ma 0 -Md ffffffff -Ms 4 -Mt 800 -Is 4.255 -Id -1.255 -It message -Il 32 -If 0 -Ii 4 -Iv 32 
r -t 0.635502322 -Hs 6 -Hd -1 -Ni 6 -Nx 339.00 -Ny 344.00 -Nz 0.00 -Ne -1.000000 -Nl RTR -Nw --- -Ma 0 -Md ffffffff -Ms 4 -Mt 800 -Is 4.255 -Id -1.255 -It message -Il 32 -If 0 -Ii 4 -Iv 32 
r -t 0.635502462 -Hs 0 -Hd -1 -Ni 0 -Nx 289.00 -Ny 394.00 -Nz 0.00 -Ne -1.000000 -Nl RTR -Nw --- -Ma 0 -Md ffffffff -Ms 4 -Mt 800 -Is 4.255 -Id -1.255 -It message -Il 32 -If 0 -Ii 4 -Iv 32 
r -t 0.635502482 -Hs 5 -Hd -1 -Ni 5 -Nx 289.00 -Ny 344.00 -Nz 0.00 -Ne -1.000000 -Nl RTR -Nw --- -Ma 0 -Md ffffffff -Ms 4 -Mt 800 -Is 4.255 -Id -1.255 -It message -Il 32 -If 0 -Ii 4 -Iv 32 
s -t 0.889120254 -Hs 2 -Hd -1 -Ni 2 -Nx 389.00 -Ny 394.00 -Nz 0.00 -Ne -1.000000 -Nl RTR -Nw --- -Ma 0 -Md 0 -Ms 0 -Mt 0 -Is 2.255 -Id -1.255 -It message -Il 32 -If 0 -Ii 5 -Iv 32 
s -t 0.889335254 -Hs 2 -Hd -1 -Ni 2 -Nx 389.00 -Ny 394.00 -Nz 0.00 -Ne -1.000000 -Nl MAC -Nw --- -Ma 0 -Md ffffffff -Ms 2 -Mt 800 -Is 2.255 -Id -1.255 -It message -Il 90 -If 0 -Ii 5 -Iv 32 
r -t 0.890055420 -Hs 1 -Hd -1 -Ni 1 -Nx 339.00 -Ny 394.00 -Nz 0.00 -Ne -1.000000 -Nl MAC -Nw --- -Ma 0 -Md ffffffff -Ms 2 -Mt 800 -Is 2.255 -Id -1.255 -It message -Il 32 -If 0 -Ii 5 -Iv 32 
r -t 0.890055420 -Hs 7 -Hd -1 -Ni 7 -Nx 389.00 -Ny 344.00 -Nz 0.00 -Ne -1.000000 -Nl MAC -Nw --- -Ma 0 -Md ffffffff -Ms 2 -Mt 800 -Is 2.255 -Id -1.255 -It message -Il 32 -If 0 -Ii 5 -Iv 32 
r -t 0.890055420 -Hs 3 -Hd -1 -Ni 3 -Nx 439.00 -Ny 394.00 -Nz 0.00 -Ne -1.000000 -Nl MAC -Nw --- -Ma 0 -Md ffffffff -Ms 2 -Mt 800 -Is 2.255 -Id -1.255 -It message -Il 32 -If 0 -Ii 5 -Iv 32 
r -t 0.890055489 -Hs 6 -Hd -1 -Ni 6 -Nx 339.00 -Ny 344.00 -Nz 0.00 -Ne -1.000000 -Nl MAC -Nw --- -Ma 0 -Md ffffffff -Ms 2 -Mt 800 -Is 2.255 -Id -1.255 -It message -Il 32 -If 0 -Ii 5 -Iv 32 
r -t 0.890055489 -Hs 8 -Hd -1 -Ni 8 -Nx 439.00 -Ny 344.00 -Nz 0.00 -Ne -1.000000 -Nl MAC -Nw --- -Ma 0 -Md ffffffff -Ms 2 -Mt 800 -Is 2.255 -Id -1.255 -It message -Il 32 -If 0 -Ii 5 -Iv 32 
r -t 0.890055587 -Hs 0 -Hd -1 -Ni 0 -Nx 289.00 -Ny 394.00 -Nz 0.00 -Ne -1.000000 -Nl MAC -Nw --- -Ma 0 -Md ffffffff -Ms 2 -Mt 800 -Is 2.255 -Id -1.255 -It message -Il 32 -If 0 -Ii 5 -Iv 32 
r -t 0.890055587 -Hs 4 -Hd -1 -Ni 4 -Nx 489.00 -Ny 394.00 -Nz 0.00 -Ne -1.000000 -Nl MAC -Nw --- -Ma 0 -Md ffffffff -Ms 2 -Mt 800 -Is 2.255 -Id -1.255 -It message -Il 32 -If 0 -Ii 5 -Iv 32 
r -t 0.890055626 -Hs 5 -Hd -1 -Ni 5 -Nx 289.00 -Ny 344.00 -Nz 0.00 -Ne -1.000000 -Nl MAC -Nw --- -Ma 0 -Md ffffffff -Ms 2 -Mt 800 -Is 2.255 -Id -1.255 -It message -Il 32 -If 0 -Ii 5 -Iv 32 
r -t 0.890055626 -Hs 9 -Hd -1 -Ni 9 -Nx 489.00 -Ny 344.00 -Nz 0.00 -Ne -1.000000 -Nl MAC -Nw --- -Ma 0 -Md ffffffff -Ms 2 -Mt 800 -Is 2.255 -Id -1.255 -It message -Il 32 -If 0 -Ii 5 -Iv 32 
r -t 0.890080420 -Hs 1 -Hd -1 -Ni 1 -Nx 339.00 -Ny 394.00 -Nz 0.00 -Ne -1.000000 -Nl RTR -Nw --- -Ma 0 -Md ffffffff -Ms 2 -Mt 800 -Is 2.255 -Id -1.255 -It message -Il 32 -If 0 -Ii 5 -Iv 32 
r -t 0.890080420 -Hs 7 -Hd -1 -Ni 7 -Nx 389.00 -Ny 344.00 -Nz 0.00 -Ne -1.000000 -Nl RTR -Nw --- -Ma 0 -Md ffffffff -Ms 2 -Mt 800 -Is 2.255 -Id -1.255 -It message -Il 32 -If 0 -Ii 5 -Iv 32 
r -t 0.890080420 -Hs 3 -Hd -1 -Ni 3 -Nx 439.00 -Ny 394.00 -Nz 0.00 -Ne -1.000000 -Nl RTR -Nw --- -Ma 0 -Md ffffffff -Ms 2 -Mt 800 -Is 2.255 -Id -1.255 -It message -Il 32 -If 0 -Ii 5 -Iv 32 
r -t 0.890080489 -Hs 6 -Hd -1 -Ni 6 -Nx 339.00 -Ny 344.00 -Nz 0.00 -Ne -1.000000 -Nl RTR -Nw --- -Ma 0 -Md ffffffff -Ms 2 -Mt 800 -Is 2.255 -Id -1.255 -It message -Il 32 -If 0 -Ii 5 -Iv 32 
r -t 0.890080489 -Hs 8 -Hd -1 -Ni 8 -Nx 439.00 -Ny 344.00 -Nz 0.00 -Ne -1.000000 -Nl RTR -Nw --- -Ma 0 -Md ffffffff -Ms 2 -Mt 800 -Is 2.255 -Id -1.255 -It message -Il 32 -If 0 -Ii 5 -Iv 32 
r -t 0.890080587 -Hs 0 -Hd -1 -Ni 0 -Nx 289.00 -Ny 394.00 -Nz 0.00 -Ne -1.000000 -Nl RTR -Nw --- -Ma 0 -Md ffffffff -Ms 2 -Mt 800 -Is 2.255 -Id -1.255 -It message -Il 32 -If 0 -Ii 5 -Iv 32 
r -t 0.890080587 -Hs 4 -Hd -1 -Ni 4 -Nx 489.00 -Ny 394.00 -Nz 0.00 -Ne -1.000000 -Nl RTR -Nw --- -Ma 0 -Md ffffffff -Ms 2 -Mt 800 -Is 2.255 -Id -1.255 -It message -Il 32 -If 0 -Ii 5 -Iv 32 
r -t 0.890080626 -Hs 5 -Hd -1 -Ni 5 -Nx 289.00 -Ny 344.00 -Nz 0.00 -Ne -1.000000 -Nl RTR -Nw --- -Ma 0 -Md ffffffff -Ms 2 -Mt 800 -Is 2.255 -Id -1.255 -It message -Il 32 -If 0 -Ii 5 -Iv 32 
r -t 0.890080626 -Hs 9 -Hd -1 -Ni 9 -Nx 489.00 -Ny 344.00 -Nz 0.00 -Ne -1.000000 -Nl RTR -Nw --- -Ma 0 -Md ffffffff -Ms 2 -Mt 800 -Is 2.255 -Id -1.255 -It message -Il 32 -If 0 -Ii 5 -Iv 32 
s -t 1.000000000 -Hs 0 -Hd -2 -Ni 0 -Nx 289.00 -Ny 394.00 -Nz 0.00 -Ne -1.000000 -Nl AGT -Nw --- -Ma 0 -Md 0 -Ms 0 -Mt 0 -Is 0.0 -Id 9.0 -It tcp -Il 40 -If 0 -Ii 6 -Iv 32 -Pn tcp -Ps 0 -Pa 0 -Pf 0 -Po 0 
r -t 1.000000000 -Hs 0 -Hd -2 -Ni 0 -Nx 289.00 -Ny 394.00 -Nz 0.00 -Ne -1.000000 -Nl RTR -Nw --- -Ma 0 -Md 0 -Ms 0 -Mt 0 -Is 0.0 -Id 9.0 -It tcp -Il 40 -If 0 -Ii 6 -Iv 32 -Pn tcp -Ps 0 -Pa 0 -Pf 0 -Po 0 
s -t 1.000000000 -Hs 5 -Hd -2 -Ni 5 -Nx 289.00 -Ny 344.00 -Nz 0.00 -Ne -1.000000 -Nl AGT -Nw --- -Ma 0 -Md 0 -Ms 0 -Mt 0 -Is 5.0 -Id 4.0 -It tcp -Il 40 -If 0 -Ii 7 -Iv 32 -Pn tcp -Ps 0 -Pa 0 -Pf 0 -Po 0 
r -t 1.000000000 -Hs 5 -Hd -2 -Ni 5 -Nx 289.00 -Ny 344.00 -Nz 0.00 -Ne -1.000000 -Nl RTR -Nw --- -Ma 0 -Md 0 -Ms 0 -Mt 0 -Is 5.0 -Id 4.0 -It tcp -Il 40 -If 0 -Ii 7 -Iv 32 -Pn tcp -Ps 0 -Pa 0 -Pf 0 -Po 0 
s -t 1.000000000 -Hs 5 -Hd 4 -Ni 5 -Nx 289.00 -Ny 344.00 -Nz 0.00 -Ne -1.000000 -Nl RTR -Nw --- -Ma 0 -Md 0 -Ms 0 -Mt 0 -Is 5.0 -Id 4.0 -It tcp -Il 60 -If 0 -Ii 7 -Iv 32 -Pn tcp -Ps 0 -Pa 0 -Pf 0 -Po 0 
s -t 1.000335000 -Hs 5 -Hd -2 -Ni 5 -Nx 289.00 -Ny 344.00 -Nz 0.00 -Ne -1.000000 -Nl MAC -Nw --- -Ma 0 -Md ffffffff -Ms 5 -Mt 806 -P arp -Po REQUEST -Pms 5 -Ps 5 -Pmd 0 -Pd 4 
r -t 1.001023167 -Hs 0 -Hd -2 -Ni 0 -Nx 289.00 -Ny 394.00 -Nz 0.00 -Ne -1.000000 -Nl MAC -Nw --- -Ma 0 -Md ffffffff -Ms 5 -Mt 806 -P arp -Po REQUEST -Pms 5 -Ps 5 -Pmd 0 -Pd 4 
r -t 1.001023167 -Hs 6 -Hd -2 -Ni 6 -Nx 339.00 -Ny 344.00 -Nz 0.00 -Ne -1.000000 -Nl MAC -Nw --- -Ma 0 -Md ffffffff -Ms 5 -Mt 806 -P arp -Po REQUEST -Pms 5 -Ps 5 -Pmd 0 -Pd 4 
r -t 1.001023236 -Hs 1 -Hd -2 -Ni 1 -Nx 339.00 -Ny 394.00 -Nz 0.00 -Ne -1.000000 -Nl MAC -Nw --- -Ma 0 -Md ffffffff -Ms 5 -Mt 806 -P arp -Po REQUEST -Pms 5 -Ps 5 -Pmd 0 -Pd 4 
r -t 1.001023333 -Hs 7 -Hd -2 -Ni 7 -Nx 389.00 -Ny 344.00 -Nz 0.00 -Ne -1.000000 -Nl MAC -Nw --- -Ma 0 -Md ffffffff -Ms 5 -Mt 806 -P arp -Po REQUEST -Pms 5 -Ps 5 -Pmd 0 -Pd 4 
r -t 1.001023373 -Hs 2 -Hd -2 -Ni 2 -Nx 389.00 -Ny 394.00 -Nz 0.00 -Ne -1.000000 -Nl MAC -Nw --- -Ma 0 -Md ffffffff -Ms 5 -Mt 806 -P arp -Po REQUEST -Pms 5 -Ps 5 -Pmd 0 -Pd 4 
r -t 1.001023500 -Hs 8 -Hd -2 -Ni 8 -Nx 439.00 -Ny 344.00 -Nz 0.00 -Ne -1.000000 -Nl MAC -Nw --- -Ma 0 -Md ffffffff -Ms 5 -Mt 806 -P arp -Po REQUEST -Pms 5 -Ps 5 -Pmd 0 -Pd 4 
r -t 1.001023527 -Hs 3 -Hd -2 -Ni 3 -Nx 439.00 -Ny 394.00 -Nz 0.00 -Ne -1.000000 -Nl MAC -Nw --- -Ma 0 -Md ffffffff -Ms 5 -Mt 806 -P arp -Po REQUEST -Pms 5 -Ps 5 -Pmd 0 -Pd 4 
r -t 1.001023667 -Hs 9 -Hd -2 -Ni 9 -Nx 489.00 -Ny 344.00 -Nz 0.00 -Ne -1.000000 -Nl MAC -Nw --- -Ma 0 -Md ffffffff -Ms 5 -Mt 806 -P arp -Po REQUEST -Pms 5 -Ps 5 -Pmd 0 -Pd 4 
r -t 1.001023687 -Hs 4 -Hd -2 -Ni 4 -Nx 489.00 -Ny 394.00 -Nz 0.00 -Ne -1.000000 -Nl MAC -Nw --- -Ma 0 -Md ffffffff -Ms 5 -Mt 806 -P arp -Po REQUEST -Pms 5 -Ps 5 -Pmd 0 -Pd 4 
s -t 1.001178687 -Hs 4 -Hd -2 -Ni 4 -Nx 489.00 -Ny 394.00 -Nz 0.00 -Ne -1.000000 -Nl MAC -Nw --- -Ma 52e -Md 5 -Ms 4 -Mt 0 
r -t 1.001531374 -Hs 5 -Hd -2 -Ni 5 -Nx 289.00 -Ny 344.00 -Nz 0.00 -Ne -1.000000 -Nl MAC -Nw --- -Ma 52e -Md 5 -Ms 4 -Mt 0 
s -t 1.001541374 -Hs 5 -Hd -2 -Ni 5 -Nx 289.00 -Ny 344.00 -Nz 0.00 -Ne -1.000000 -Nl MAC -Nw --- -Ma 3f4 -Md 4 -Ms 0 -Mt 0 
r -t 1.001846062 -Hs 4 -Hd -2 -Ni 4 -Nx 489.00 -Ny 394.00 -Nz 0.00 -Ne -1.000000 -Nl MAC -Nw --- -Ma 3f4 -Md 4 -Ms 0 -Mt 0 
s -t 1.001856062 -Hs 4 -Hd -2 -Ni 4 -Nx 489.00 -Ny 394.00 -Nz 0.00 -Ne -1.000000 -Nl MAC -Nw --- -Ma 13a -Md 5 -Ms 4 -Mt 806 -P arp -Po REPLY -Pms 4 -Ps 4 -Pmd 5 -Pd 5 
r -t 1.002544749 -Hs 5 -Hd -2 -Ni 5 -Nx 289.00 -Ny 344.00 -Nz 0.00 -Ne -1.000000 -Nl MAC -Nw --- -Ma 13a -Md 5 -Ms 4 -Mt 806 -P arp -Po REPLY -Pms 4 -Ps 4 -Pmd 5 -Pd 5 
s -t 1.002554749 -Hs 5 -Hd -2 -Ni 5 -Nx 289.00 -Ny 344.00 -Nz 0.00 -Ne -1.000000 -Nl MAC -Nw --- -Ma 0 -Md 4 -Ms 0 -Mt 0 
r -t 1.002859436 -Hs 4 -Hd -2 -Ni 4 -Nx 489.00 -Ny 394.00 -Nz 0.00 -Ne -1.000000 -Nl MAC -Nw --- -Ma 0 -Md 4 -Ms 0 -Mt 0 
s -t 1.003008749 -Hs 5 -Hd -2 -Ni 5 -Nx 289.00 -Ny 344.00 -Nz 0.00 -Ne -1.000000 -Nl MAC -Nw --- -Ma 62e -Md 4 -Ms 5 -Mt 0 
r -t 1.003361436 -Hs 4 -Hd -2 -Ni 4 -Nx 489.00 -Ny 394.00 -Nz 0.00 -Ne -1.000000 -Nl MAC -Nw --- -Ma 62e -Md 4 -Ms 5 -Mt 0 
s -t 1.003371436 -Hs 4 -Hd -2 -Ni 4 -Nx 489.00 -Ny 394.00 -Nz 0.00 -Ne -1.000000 -Nl MAC -Nw --- -Ma 4f4 -Md 5 -Ms 0 -Mt 0 
r -t 1.003676123 -Hs 5 -Hd -2 -Ni 5 -Nx 289.00 -Ny 344.00 -Nz 0.00 -Ne -1.000000 -Nl MAC -Nw --- -Ma 4f4 -Md 5 -Ms 0 -Mt 0 
s -t 1.003686123 -Hs 5 -Hd 4 -Ni 5 -Nx 289.00 -Ny 344.00 -Nz 0.00 -Ne -1.000000 -Nl MAC -Nw --- -Ma 13a -Md 4 -Ms 5 -Mt 800 -Is 5.0 -Id 4.0 -It tcp -Il 118 -If 0 -Ii 7 -Iv 32 -Pn tcp -Ps 0 -Pa 0 -Pf 0 -Po 0 
r -t 1.004630810 -Hs 4 -Hd 4 -Ni 4 -Nx 489.00 -Ny 394.00 -Nz 0.00 -Ne -1.000000 -Nl MAC -Nw --- -Ma 13a -Md 4 -Ms 5 -Mt 800 -Is 5.0 -Id 4.0 -It tcp -Il 60 -If 0 -Ii 7 -Iv 32 -Pn tcp -Ps 0 -Pa 0 -Pf 1 -Po 0 
s -t 1.004640810 -Hs 4 -Hd -2 -Ni 4 -Nx 489.00 -Ny 394.00 -Nz 0.00 -Ne -1.000000 -Nl MAC -Nw --- -Ma 0 -Md 5 -Ms 0 -Mt 0 
r -t 1.004655810 -Hs 4 -Hd 4 -Ni 4 -Nx 489.00 -Ny 394.00 -Nz 0.00 -Ne -1.000000 -Nl AGT -Nw --- -Ma 13a -Md 4 -Ms 5 -Mt 800 -Is 5.0 -Id 4.0 -It tcp -Il 60 -If 0 -Ii 7 -Iv 32 -Pn tcp -Ps 0 -Pa 0 -Pf 1 -Po 0 
s -t 1.004655810 -Hs 4 -Hd -2 -Ni 4 -Nx 489.00 -Ny 394.00 -Nz 0.00 -Ne -1.000000 -Nl AGT -Nw --- -Ma 0 -Md 0 -Ms 0 -Mt 0 -Is 4.0 -Id 5.0 -It ack -Il 40 -If 0 -Ii 8 -Iv 32 -Pn tcp -Ps 0 -Pa 0 -Pf 0 -Po 0 
r -t 1.004655810 -Hs 4 -Hd -2 -Ni 4 -Nx 489.00 -Ny 394.00 -Nz 0.00 -Ne -1.000000 -Nl RTR -Nw --- -Ma 0 -Md 0 -Ms 0 -Mt 0 -Is 4.0 -Id 5.0 -It ack -Il 40 -If 0 -Ii 8 -Iv 32 -Pn tcp -Ps 0 -Pa 0 -Pf 0 -Po 0 
r -t 1.004945497 -Hs 5 -Hd -2 -Ni 5 -Nx 289.00 -Ny 344.00 -Nz 0.00 -Ne -1.000000 -Nl MAC -Nw --- -Ma 0 -Md 5 -Ms 0 -Mt 0 
s -t 1.286643765 -Hs 7 -Hd -1 -Ni 7 -Nx 389.00 -Ny 344.00 -Nz 0.00 -Ne -1.000000 -Nl RTR -Nw --- -Ma 0 -Md 0 -Ms 0 -Mt 0 -Is 7.255 -Id -1.255 -It message -Il 32 -If 0 -Ii 9 -Iv 32 
s -t 1.286778765 -Hs 7 -Hd -1 -Ni 7 -Nx 389.00 -Ny 344.00 -Nz 0.00 -Ne -1.000000 -Nl MAC -Nw --- -Ma 0 -Md ffffffff -Ms 7 -Mt 800 -Is 7.255 -Id -1.255 -It message -Il 90 -If 0 -Ii 9 -Iv 32 
r -t 1.287498931 -Hs 2 -Hd -1 -Ni 2 -Nx 389.00 -Ny 394.00 -Nz 0.00 -Ne -1.000000 -Nl MAC -Nw --- -Ma 0 -Md ffffffff -Ms 7 -Mt 800 -Is 7.255 -Id -1.255 -It message -Il 32 -If 0 -Ii 9 -Iv 32 
r -t 1.287498931 -Hs 6 -Hd -1 -Ni 6 -Nx 339.00 -Ny 344.00 -Nz 0.00 -Ne -1.000000 -Nl MAC -Nw --- -Ma 0 -Md ffffffff -Ms 7 -Mt 800 -Is 7.255 -Id -1.255 -It message -Il 32 -If 0 -Ii 9 -Iv 32 
r -t 1.287498931 -Hs 8 -Hd -1 -Ni 8 -Nx 439.00 -Ny 344.00 -Nz 0.00 -Ne -1.000000 -Nl MAC -Nw --- -Ma 0 -Md ffffffff -Ms 7 -Mt 800 -Is 7.255 -Id -1.255 -It message -Il 32 -If 0 -Ii 9 -Iv 32 
r -t 1.287499000 -Hs 1 -Hd -1 -Ni 1 -Nx 339.00 -Ny 394.00 -Nz 0.00 -Ne -1.000000 -Nl MAC -Nw --- -Ma 0 -Md ffffffff -Ms 7 -Mt 800 -Is 7.255 -Id -1.255 -It message -Il 32 -If 0 -Ii 9 -Iv 32 
r -t 1.287499000 -Hs 3 -Hd -1 -Ni 3 -Nx 439.00 -Ny 394.00 -Nz 0.00 -Ne -1.000000 -Nl MAC -Nw --- -Ma 0 -Md ffffffff -Ms 7 -Mt 800 -Is 7.255 -Id -1.255 -It message -Il 32 -If 0 -Ii 9 -Iv 32 
r -t 1.287499098 -Hs 5 -Hd -1 -Ni 5 -Nx 289.00 -Ny 344.00 -Nz 0.00 -Ne -1.000000 -Nl MAC -Nw --- -Ma 0 -Md ffffffff -Ms 7 -Mt 800 -Is 7.255 -Id -1.255 -It message -Il 32 -If 0 -Ii 9 -Iv 32 