n -t * -s 0  -x 289 -y 394 -Z 0 -z 20  -v circle -c black
n -t * -s 1  -x 339 -y 394 -Z 0 -z 20  -v circle -c black
n -t * -s 2  -x 389 -y 394 -Z 0 -z 20  -v circle -c black
n -t * -s 3  -x 439 -y 394 -Z 0 -z 20  -v circle -c black
n -t * -s 4  -x 489 -y 394 -Z 0 -z 20  -v circle -c black
n -t * -s 5  -x 289 -y 344 -Z 0 -z 20  -v circle -c black
n -t * -s 6  -x 339 -y 344 -Z 0 -z 20  -v circle -c black
n -t * -s 7  -x 389 -y 344 -Z 0 -z 20  -v circle -c black
n -t * -s 8  -x 439 -y 344 -Z 0 -z 20  -v circle -c black
n -t * -s 9  -x 489 -y 344 -Z 0 -z 20  -v circle -c black
V -t * -v 1.0a5 -a 0
W -t * -x 589 -y 494
A -t * -n 1 -p 0 -o 0x7fffffff -c 30 -a 1
A -t * -h 1 -m 1073741823 -s 0
+ -t 0.030050775 -s 0 -d -1 -p message -e 32 -c 2 -a 0 -i 0 -k RTR 
- -t 0.030050775 -s 0 -d -1 -p message -e 32 -c 2 -a 0 -i 0 -k RTR
h -t 0.030050775 -s 0 -d -1 -p message -e 32 -c 2 -a 0 -i 0 -k RTR
+ -t 0.030285775 -s 0 -d -1 -p message -e 90 -c 2 -a 0 -i 0 -k MAC 
- -t 0.030285775 -s 0 -d -1 -p message -e 90 -c 2 -a 0 -i 0 -k MAC
h -t 0.030285775 -s 0 -d -1 -p message -e 90 -c 2 -a 0 -i 0 -k MAC
r -t 0.031005942 -s 5 -d -1 -p message -e 32 -c 2 -a 0 -i 0 -k MAC
r -t 0.031005942 -s 1 -d -1 -p message -e 32 -c 2 -a 0 -i 0 -k MAC
r -t 0.031006011 -s 6 -d -1 -p message -e 32 -c 2 -a 0 -i 0 -k MAC
r -t 0.031006109 -s 2 -d -1 -p message -e 32 -c 2 -a 0 -i 0 -k MAC
r -t 0.031006148 -s 7 -d -1 -p message -e 32 -c 2 -a 0 -i 0 -k MAC
r -t 0.031006275 -s 3 -d -1 -p message -e 32 -c 2 -a 0 -i 0 -k MAC
r -t 0.031006302 -s 8 -d -1 -p message -e 32 -c 2 -a 0 -i 0 -k MAC
r -t 0.031006442 -s 4 -d -1 -p message -e 32 -c 2 -a 0 -i 0 -k MAC
r -t 0.031006463 -s 9 -d -1 -p message -e 32 -c 2 -a 0 -i 0 -k MAC
r -t 0.031030942 -s 5 -d -1 -p message -e 32 -c 2 -a 0 -i 0 -k RTR
r -t 0.031030942 -s 1 -d -1 -p message -e 32 -c 2 -a 0 -i 0 -k RTR
r -t 0.031031011 -s 6 -d -1 -p message -e 32 -c 2 -a 0 -i 0 -k RTR
r -t 0.031031109 -s 2 -d -1 -p message -e 32 -c 2 -a 0 -i 0 -k RTR
r -t 0.031031148 -s 7 -d -1 -p message -e 32 -c 2 -a 0 -i 0 -k RTR
r -t 0.031031275 -s 3 -d -1 -p message -e 32 -c 2 -a 0 -i 0 -k RTR
r -t 0.031031302 -s 8 -d -1 -p message -e 32 -c 2 -a 0 -i 0 -k RTR
r -t 0.031031442 -s 4 -d -1 -p message -e 32 -c 2 -a 0 -i 0 -k RTR
r -t 0.031031463 -s 9 -d -1 -p message -e 32 -c 2 -a 0 -i 0 -k RTR
+ -t 0.184842620 -s 1 -d -1 -p message -e 32 -c 2 -a 0 -i 1 -k RTR 
- -t 0.184842620 -s 1 -d -1 -p message -e 32 -c 2 -a 0 -i 1 -k RTR
h -t 0.184842620 -s 1 -d -1 -p message -e 32 -c 2 -a 0 -i 1 -k RTR
+ -t 0.185397620 -s 1 -d -1 -p message -e 90 -c 2 -a 0 -i 1 -k MAC 
- -t 0.185397620 -s 1 -d -1 -p message -e 90 -c 2 -a 0 -i 1 -k MAC
h -t 0.185397620 -s 1 -d -1 -p message -e 90 -c 2 -a 0 -i 1 -k MAC
r -t 0.186117786 -s 0 -d -1 -p message -e 32 -c 2 -a 0 -i 1 -k MAC
r -t 0.186117786 -s 6 -d -1 -p message -e 32 -c 2 -a 0 -i 1 -k MAC
r -t 0.186117786 -s 2 -d -1 -p message -e 32 -c 2 -a 0 -i 1 -k MAC
r -t 0.186117855 -s 5 -d -1 -p message -e 32 -c 2 -a 0 -i 1 -k MAC
r -t 0.186117855 -s 7 -d -1 -p message -e 32 -c 2 -a 0 -i 1 -k MAC
r -t 0.186117953 -s 3 -d -1 -p message -e 32 -c 2 -a 0 -i 1 -k MAC
r -t 0.186117992 -s 8 -d -1 -p message -e 32 -c 2 -a 0 -i 1 -k MAC
r -t 0.186118120 -s 4 -d -1 -p message -e 32 -c 2 -a 0 -i 1 -k MAC
r -t 0.186118147 -s 9 -d -1 -p message -e 32 -c 2 -a 0 -i 1 -k MAC
r -t 0.186142786 -s 0 -d -1 -p message -e 32 -c 2 -a 0 -i 1 -k RTR
r -t 0.186142786 -s 6 -d -1 -p message -e 32 -c 2 -a 0 -i 1 -k RTR
r -t 0.186142786 -s 2 -d -1 -p message -e 32 -c 2 -a 0 -i 1 -k RTR
r -t 0.186142855 -s 5 -d -1 -p message -e 32 -c 2 -a 0 -i 1 -k RTR
r -t 0.186142855 -s 7 -d -1 -p message -e 32 -c 2 -a 0 -i 1 -k RTR
r -t 0.186142953 -s 3 -d -1 -p message -e 32 -c 2 -a 0 -i 1 -k RTR
r -t 0.186142992 -s 8 -d -1 -p message -e 32 -c 2 -a 0 -i 1 -k RTR
r -t 0.186143120 -s 4 -d -1 -p message -e 32 -c 2 -a 0 -i 1 -k RTR
r -t 0.186143147 -s 9 -d -1 -p message -e 32 -c 2 -a 0 -i 1 -k RTR
+ -t 0.477273789 -s 6 -d -1 -p message -e 32 -c 2 -a 0 -i 2 -k RTR 
- -t 0.477273789 -s 6 -d -1 -p message -e 32 -c 2 -a 0 -i 2 -k RTR
h -t 0.477273789 -s 6 -d -1 -p message -e 32 -c 2 -a 0 -i 2 -k RTR
+ -t 0.477568789 -s 6 -d -1 -p message -e 90 -c 2 -a 0 -i 2 -k MAC 
- -t 0.477568789 -s 6 -d -1 -p message -e 90 -c 2 -a 0 -i 2 -k MAC
h -t 0.477568789 -s 6 -d -1 -p message -e 90 -c 2 -a 0 -i 2 -k MAC
r -t 0.478288956 -s 1 -d -1 -p message -e 32 -c 2 -a 0 -i 2 -k MAC
r -t 0.478288956 -s 5 -d -1 -p message -e 32 -c 2 -a 0 -i 2 -k MAC
r -t 0.478288956 -s 7 -d -1 -p message -e 32 -c 2 -a 0 -i 2 -k MAC
r -t 0.478289025 -s 0 -d -1 -p message -e 32 -c 2 -a 0 -i 2 -k MAC
r -t 0.478289025 -s 2 -d -1 -p message -e 32 -c 2 -a 0 -i 2 -k MAC
r -t 0.478289123 -s 8 -d -1 -p message -e 32 -c 2 -a 0 -i 2 -k MAC
r -t 0.478289162 -s 3 -d -1 -p message -e 32 -c 2 -a 0 -i 2 -k MAC
r -t 0.478289289 -s 9 -d -1 -p message -e 32 -c 2 -a 0 -i 2 -k MAC
r -t 0.478289316 -s 4 -d -1 -p message -e 32 -c 2 -a 0 -i 2 -k MAC
r -t 0.478313956 -s 1 -d -1 -p message -e 32 -c 2 -a 0 -i 2 -k RTR
r -t 0.478313956 -s 5 -d -1 -p message -e 32 -c 2 -a 0 -i 2 -k RTR
r -t 0.478313956 -s 7 -d -1 -p message -e 32 -c 2 -a 0 -i 2 -k RTR
r -t 0.478314025 -s 0 -d -1 -p message -e 32 -c 2 -a 0 -i 2 -k RTR
r -t 0.478314025 -s 2 -d -1 -p message -e 32 -c 2 -a 0 -i 2 -k RTR
r -t 0.478314123 -s 8 -d -1 -p message -e 32 -c 2 -a 0 -i 2 -k RTR
r -t 0.478314162 -s 3 -d -1 -p message -e 32 -c 2 -a 0 -i 2 -k RTR
r -t 0.478314289 -s 9 -d -1 -p message -e 32 -c 2 -a 0 -i 2 -k RTR
r -t 0.478314316 -s 4 -d -1 -p message -e 32 -c 2 -a 0 -i 2 -k RTR
+ -t 0.623344604 -s 8 -d -1 -p message -e 32 -c 2 -a 0 -i 3 -k RTR 
- -t 0.623344604 -s 8 -d -1 -p message -e 32 -c 2 -a 0 -i 3 -k RTR
h -t 0.623344604 -s 8 -d -1 -p message -e 32 -c 2 -a 0 -i 3 -k RTR
+ -t 0.623599604 -s 8 -d -1 -p message -e 90 -c 2 -a 0 -i 3 -k MAC 
- -t 0.623599604 -s 8 -d -1 -p message -e 90 -c 2 -a 0 -i 3 -k MAC
h -t 0.623599604 -s 8 -d -1 -p message -e 90 -c 2 -a 0 -i 3 -k MAC
r -t 0.624319770 -s 3 -d -1 -p message -e 32 -c 2 -a 0 -i 3 -k MAC
r -t 0.624319770 -s 7 -d -1 -p message -e 32 -c 2 -a 0 -i 3 -k MAC
r -t 0.624319770 -s 9 -d -1 -p message -e 32 -c 2 -a 0 -i 3 -k MAC
r -t 0.624319839 -s 2 -d -1 -p message -e 32 -c 2 -a 0 -i 3 -k MAC
r -t 0.624319839 -s 4 -d -1 -p message -e 32 -c 2 -a 0 -i 3 -k MAC
r -t 0.624319937 -s 6 -d -1 -p message -e 32 -c 2 -a 0 -i 3 -k MAC
r -t 0.624319976 -s 1 -d -1 -p message -e 32 -c 2 -a 0 -i 3 -k MAC
r -t 0.624320104 -s 5 -d -1 -p message -e 32 -c 2 -a 0 -i 3 -k MAC
r -t 0.624320131 -s 0 -d -1 -p message -e 32 -c 2 -a 0 -i 3 -k MAC
r -t 0.624344770 -s 3 -d -1 -p message -e 32 -c 2 -a 0 -i 3 -k RTR
r -t 0.624344770 -s 7 -d -1 -p message -e 32 -c 2 -a 0 -i 3 -k RTR
r -t 0.624344770 -s 9 -d -1 -p message -e 32 -c 2 -a 0 -i 3 -k RTR
r -t 0.624344839 -s 2 -d -1 -p message -e 32 -c 2 -a 0 -i 3 -k RTR
r -t 0.624344839 -s 4 -d -1 -p message -e 32 -c 2 -a 0 -i 3 -k RTR
r -t 0.624344937 -s 6 -d -1 -p message -e 32 -c 2 -a 0 -i 3 -k RTR
r -t 0.624344976 -s 1 -d -1 -p message -e 32 -c 2 -a 0 -i 3 -k RTR
r -t 0.624345104 -s 5 -d -1 -p message -e 32 -c 2 -a 0 -i 3 -k RTR
r -t 0.624345131 -s 0 -d -1 -p message -e 32 -c 2 -a 0 -i 3 -k RTR
+ -t 0.634321795 -s 4 -d -1 -p message -e 32 -c 2 -a 0 -i 4 -k RTR 
- -t 0.634321795 -s 4 -d -1 -p message -e 32 -c 2 -a 0 -i 4 -k RTR
h -t 0.634321795 -s 4 -d -1 -p message -e 32 -c 2 -a 0 -i 4 -k RTR
+ -t 0.634756795 -s 4 -d -1 -p message -e 90 -c 2 -a 0 -i 4 -k MAC 
- -t 0.634756795 -s 4 -d -1 -p message -e 90 -c 2 -a 0 -i 4 -k MAC
h -t 0.634756795 -s 4 -d -1 -p message -e 90 -c 2 -a 0 -i 4 -k MAC
r -t 0.635476962 -s 3 -d -1 -p message -e 32 -c 2 -a 0 -i 4 -k MAC
r -t 0.635476962 -s 9 -d -1 -p message -e 32 -c 2 -a 0 -i 4 -k MAC
r -t 0.635477031 -s 8 -d -1 -p message -e 32 -c 2 -a 0 -i 4 -k MAC
r -t 0.635477129 -s 2 -d -1 -p message -e 32 -c 2 -a 0 -i 4 -k MAC
r -t 0.635477168 -s 7 -d -1 -p message -e 32 -c 2 -a 0 -i 4 -k MAC
r -t 0.635477295 -s 1 -d -1 -p message -e 32 -c 2 -a 0 -i 4 -k MAC
r -t 0.635477322 -s 6 -d -1 -p message -e 32 -c 2 -a 0 -i 4 -k MAC
r -t 0.635477462 -s 0 -d -1 -p message -e 32 -c 2 -a 0 -i 4 -k MAC
r -t 0.635477482 -s 5 -d -1 -p message -e 32 -c 2 -a 0 -i 4 -k MAC
r -t 0.635501962 -s 3 -d -1 -p message -e 32 -c 2 -a 0 -i 4 -k RTR
r -t 0.635501962 -s 9 -d -1 -p message -e 32 -c 2 -a 0 -i 4 -k RTR
r -t 0.635502031 -s 8 -d -1 -p message -e 32 -c 2 -a 0 -i 4 -k RTR
r -t 0.635502129 -s 2 -d -1 -p message -e 32 -c 2 -a 0 -i 4 -k RTR
r -t 0.635502168 -s 7 -d -1 -p message -e 32 -c 2 -a 0 -i 4 -k RTR
r -t 0.635502295 -s 1 -d -1 -p message -e 32 -c 2 -a 0 -i 4 -k RTR
r -t 0.635502322 -s 6 -d -1 -p message -e 32 -c 2 -a 0 -i 4 -k RTR
r -t 0.635502462 -s 0 -d -1 -p message -e 32 -c 2 -a 0 -i 4 -k RTR
r -t 0.635502482 -s 5 -d -1 -p message -e 32 -c 2 -a 0 -i 4 -k RTR
+ -t 0.889120254 -s 2 -d -1 -p message -e 32 -c 2 -a 0 -i 5 -k RTR 
- -t 0.889120254 -s 2 -d -1 -p message -e 32 -c 2 -a 0 -i 5 -k RTR
h -t 0.889120254 -s 2 -d -1 -p message -e 32 -c 2 -a 0 -i 5 -k RTR
+ -t 0.889335254 -s 2 -d -1 -p message -e 90 -c 2 -a 0 -i 5 -k MAC 
- -t 0.889335254 -s 2 -d -1 -p message -e 90 -c 2 -a 0 -i 5 -k MAC
h -t 0.889335254 -s 2 -d -1 -p message -e 90 -c 2 -a 0 -i 5 -k MAC
r -t 0.890055420 -s 1 -d -1 -p message -e 32 -c 2 -a 0 -i 5 -k MAC
r -t 0.890055420 -s 7 -d -1 -p message -e 32 -c 2 -a 0 -i 5 -k MAC
r -t 0.890055420 -s 3 -d -1 -p message -e 32 -c 2 -a 0 -i 5 -k MAC
r -t 0.890055489 -s 6 -d -1 -p message -e 32 -c 2 -a 0 -i 5 -k MAC
r -t 0.890055489 -s 8 -d -1 -p message -e 32 -c 2 -a 0 -i 5 -k MAC
r -t 0.890055587 -s 0 -d -1 -p message -e 32 -c 2 -a 0 -i 5 -k MAC
r -t 0.890055587 -s 4 -d -1 -p message -e 32 -c 2 -a 0 -i 5 -k MAC
r -t 0.890055626 -s 5 -d -1 -p message -e 32 -c 2 -a 0 -i 5 -k MAC
r -t 0.890055626 -s 9 -d -1 -p message -e 32 -c 2 -a 0 -i 5 -k MAC
r -t 0.890080420 -s 1 -d -1 -p message -e 32 -c 2 -a 0 -i 5 -k RTR
r -t 0.890080420 -s 7 -d -1 -p message -e 32 -c 2 -a 0 -i 5 -k RTR
r -t 0.890080420 -s 3 -d -1 -p message -e 32 -c 2 -a 0 -i 5 -k RTR
r -t 0.890080489 -s 6 -d -1 -p message -e 32 -c 2 -a 0 -i 5 -k RTR
r -t 0.890080489 -s 8 -d -1 -p message -e 32 -c 2 -a 0 -i 5 -k RTR
r -t 0.890080587 -s 0 -d -1 -p message -e 32 -c 2 -a 0 -i 5 -k RTR
r -t 0.890080587 -s 4 -d -1 -p message -e 32 -c 2 -a 0 -i 5 -k RTR
r -t 0.890080626 -s 5 -d -1 -p message -e 32 -c 2 -a 0 -i 5 -k RTR
r -t 0.890080626 -s 9 -d -1 -p message -e 32 -c 2 -a 0 -i 5 -k RTR
+ -t 1.000000000 -s 0 -d -1 -p tcp -e 40 -c 2 -a 0 -i 6 -k AGT 
- -t 1.000000000 -s 0 -d -1 -p tcp -e 40 -c 2 -a 0 -i 6 -k AGT
h -t 1.000000000 -s 0 -d -1 -p tcp -e 40 -c 2 -a 0 -i 6 -k AGT
+ -t 1.000000000 -s 5 -d -1 -p tcp -e 40 -c 2 -a 0 -i 7 -k AGT 
- -t 1.000000000 -s 5 -d -1 -p tcp -e 40 -c 2 -a 0 -i 7 -k AGT
h -t 1.000000000 -s 5 -d -1 -p tcp -e 40 -c 2 -a 0 -i 7 -k AGT
+ -t 1.000000000 -s 5 -d 4 -p tcp -e 60 -c 2 -a 0 -i 7 -k RTR 
- -t 1.000000000 -s 5 -d 4 -p tcp -e 60 -c 2 -a 0 -i 7 -k RTR
h -t 1.000000000 -s 5 -d 4 -p tcp -e 60 -c 2 -a 0 -i 7 -k RTR
+ -t 1.000335000 -s 5 -d -1 -p ARP -e 86 -c 2 -a 0 -i 0 -k MAC 
- -t 1.000335000 -s 5 -d -1 -p ARP -e 86 -c 2 -a 0 -i 0 -k MAC
h -t 1.000335000 -s 5 -d -1 -p ARP -e 86 -c 2 -a 0 -i 0 -k MAC
r -t 1.001023167 -s 0 -d -1 -p ARP -e 28 -c 2 -a 0 -i 0 -k MAC
r -t 1.001023167 -s 6 -d -1 -p ARP -e 28 -c 2 -a 0 -i 0 -k MAC
r -t 1.001023236 -s 1 -d -1 -p ARP -e 28 -c 2 -a 0 -i 0 -k MAC
r -t 1.001023333 -s 7 -d -1 -p ARP -e 28 -c 2 -a 0 -i 0 -k MAC
r -t 1.001023373 -s 2 -d -1 -p ARP -e 28 -c 2 -a 0 -i 0 -k MAC
r -t 1.001023500 -s 8 -d -1 -p ARP -e 28 -c 2 -a 0 -i 0 -k MAC
r -t 1.001023527 -s 3 -d -1 -p ARP -e 28 -c 2 -a 0 -i 0 -k MAC
r -t 1.001023667 -s 9 -d -1 -p ARP -e 28 -c 2 -a 0 -i 0 -k MAC
r -t 1.001023687 -s 4 -d -1 -p ARP -e 28 -c 2 -a 0 -i 0 -k MAC
+ -t 1.001178687 -s 4 -d -1 -p RTS -e 44 -c 2 -a 0 -i 0 -k MAC 
- -t 1.001178687 -s 4 -d -1 -p RTS -e 44 -c 2 -a 0 -i 0 -k MAC
h -t 1.001178687 -s 4 -d -1 -p RTS -e 44 -c 2 -a 0 -i 0 -k MAC
r -t 1.001531374 -s 5 -d -1 -p RTS -e 44 -c 2 -a 0 -i 0 -k MAC
+ -t 1.001541374 -s 5 -d -1 -p CTS -e 38 -c 2 -a 0 -i 0 -k MAC 
- -t 1.001541374 -s 5 -d -1 -p CTS -e 38 -c 2 -a 0 -i 0 -k MAC
h -t 1.001541374 -s 5 -d -1 -p CTS -e 38 -c 2 -a 0 -i 0 -k MAC
r -t 1.001846062 -s 4 -d -1 -p CTS -e 38 -c 2 -a 0 -i 0 -k MAC
+ -t 1.001856062 -s 4 -d -1 -p ARP -e 86 -c 2 -a 0 -i 0 -k MAC 
- -t 1.001856062 -s 4 -d -1 -p ARP -e 86 -c 2 -a 0 -i 0 -k MAC
h -t 1.001856062 -s 4 -d -1 -p ARP -e 86 -c 2 -a 0 -i 0 -k MAC
r -t 1.002544749 -s 5 -d -1 -p ARP -e 28 -c 2 -a 0 -i 0 -k MAC
+ -t 1.002554749 -s 5 -d -1 -p ACK -e 38 -c 2 -a 0 -i 0 -k MAC 
- -t 1.002554749 -s 5 -d -1 -p ACK -e 38 -c 2 -a 0 -i 0 -k MAC
h -t 1.002554749 -s 5 -d -1 -p ACK -e 38 -c 2 -a 0 -i 0 -k MAC
r -t 1.002859436 -s 4 -d -1 -p ACK -e 38 -c 2 -a 0 -i 0 -k MAC
+ -t 1.003008749 -s 5 -d -1 -p RTS -e 44 -c 2 -a 0 -i 0 -k MAC 
- -t 1.003008749 -s 5 -d -1 -p RTS -e 44 -c 2 -a 0 -i 0 -k MAC
h -t 1.003008749 -s 5 -d -1 -p RTS -e 44 -c 2 -a 0 -i 0 -k MAC
r -t 1.003361436 -s 4 -d -1 -p RTS -e 44 -c 2 -a 0 -i 0 -k MAC
+ -t 1.003371436 -s 4 -d -1 -p CTS -e 38 -c 2 -a 0 -i 0 -k MAC 
- -t 1.003371436 -s 4 -d -1 -p CTS -e 38 -c 2 -a 0 -i 0 -k MAC
h -t 1.003371436 -s 4 -d -1 -p CTS -e 38 -c 2 -a 0 -i 0 -k MAC
r -t 1.003676123 -s 5 -d -1 -p CTS -e 38 -c 2 -a 0 -i 0 -k MAC
+ -t 1.003686123 -s 5 -d 4 -p tcp -e 118 -c 2 -a 0 -i 7 -k MAC 
- -t 1.003686123 -s 5 -d 4 -p tcp -e 118 -c 2 -a 0 -i 7 -k MAC
h -t 1.003686123 -s 5 -d 4 -p tcp -e 118 -c 2 -a 0 -i 7 -k MAC
r -t 1.004630810 -s 4 -d 4 -p tcp -e 60 -c 2 -a 0 -i 7 -k MAC
+ -t 1.004640810 -s 4 -d -1 -p ACK -e 38 -c 2 -a 0 -i 0 -k MAC 
- -t 1.004640810 -s 4 -d -1 -p ACK -e 38 -c 2 -a 0 -i 0 -k MAC
h -t 1.004640810 -s 4 -d -1 -p ACK -e 38 -c 2 -a 0 -i 0 -k MAC
r -t 1.004655810 -s 4 -d 4 -p tcp -e 60 -c 2 -a 0 -i 7 -k AGT
+ -t 1.004655810 -s 4 -d -1 -p ack -e 40 -c 2 -a 0 -i 8 -k AGT 
- -t 1.004655810 -s 4 -d -1 -p ack -e 40 -c 2 -a 0 -i 8 -k AGT
h -t 1.004655810 -s 4 -d -1 -p ack -e 40 -c 2 -a 0 -i 8 -k AGT
r -t 1.004945497 -s 5 -d -1 -p ACK -e 38 -c 2 -a 0 -i 0 -k MAC
+ -t 1.286643765 -s 7 -d -1 -p message -e 32 -c 2 -a 0 -i 9 -k RTR 
- -t 1.286643765 -s 7 -d -1 -p message -e 32 -c 2 -a 0 -i 9 -k RTR
h -t 1.286643765 -s 7 -d -1 -p message -e 32 -c 2 -a 0 -i 9 -k RTR
+ -t 1.286778765 -s 7 -d -1 -p message -e 90 -c 2 -a 0 -i 9 -k MAC 
- -t 1.286778765 -s 7 -d -1 -p message -e 90 -c 2 -a 0 -i 9 -k MAC
h -t 1.286778765 -s 7 -d -1 -p message -e 90 -c 2 -a 0 -i 9 -k MAC
r -t 1.287498931 -s 2 -d -1 -p message -e 32 -c 2 -a 0 -i 9 -k MAC
r -t 1.287498931 -s 6 -d -1 -p message -e 32 -c 2 -a 0 -i 9 -k MAC
r -t 1.287498931 -s 8 -d -1 -p message -e 32 -c 2 -a 0 -i 9 -k MAC
r -t 1.287499000 -s 1 -d -1 -p message -e 32 -c 2 -a 0 -i 9 -k MAC
r -t 1.287499000 -s 3 -d -1 -p message -e 32 -c 2 -a 0 -i 9 -k MAC
r -t 1.287499098 -s 5 -d -1 -p message -e 32 -c 2 -a 0 -i 9 -k MAC
r -t 1.287499098 -s 9 -d -1 -p message -e 32 -c 2 -a 0 -i 9 -k MAC
r -t 1.287499137 -s 0 -d -1 -p message -e 32 -c 2 -a 0 -i 9 -k MAC
r -t 1.287499137 -s 4 -d -1 -p message -e 32 -c 2 -a 0 -i 9 -k MAC
r -t 1.287523931 -s 2 -d -1 -p message -e 32 -c 2 -a 0 -i 9 -k RTR
r -t 1.287523931 -s 6 -d -1 -p message -e 32 -c 2 -a 0 -i 9 -k RTR
r -t 1.287523931 -s 8 -d -1 -p message -e 32 -c 2 -a 0 -i 9 -k RTR
r -t 1.287524000 -s 1 -d -1 -p message -e 32 -c 2 -a 0 -i 9 -k RTR
r -t 1.287524000 -s 3 -d -1 -p message -e 32 -c 2 -a 0 -i 9 -k RTR
r -t 1.287524098 -s 5 -d -1 -p message -e 32 -c 2 -a 0 -i 9 -k RTR
r -t 1.287524098 -s 9 -d -1 -p message -e 32 -c 2 -a 0 -i 9 -k RTR
r -t 1.287524137 -s 0 -d -1 -p message -e 32 -c 2 -a 0 -i 9 -k RTR
r -t 1.287524137 -s 4 -d -1 -p message -e 32 -c 2 -a 0 -i 9 -k RTR
+ -t 1.604261181 -s 3 -d -1 -p message -e 32 -c 2 -a 0 -i 10 -k RTR 
- -t 1.604261181 -s 3 -d -1 -p message -e 32 -c 2 -a 0 -i 10 -k RTR
h -t 1.604261181 -s 3 -d -1 -p message -e 32 -c 2 -a 0 -i 10 -k RTR
+ -t 1.604616181 -s 3 -d -1 -p message -e 90 -c 2 -a 0 -i 10 -k MAC 
- -t 1.604616181 -s 3 -d -1 -p message -e 90 -c 2 -a 0 -i 10 -k MAC
h -t 1.604616181 -s 3 -d -1 -p message -e 90 -c 2 -a 0 -i 10 -k MAC
r -t 1.605336348 -s 2 -d -1 -p message -e 32 -c 2 -a 0 -i 10 -k MAC
r -t 1.605336348 -s 8 -d -1 -p message -e 32 -c 2 -a 0 -i 10 -k MAC
r -t 1.605336348 -s 4 -d -1 -p message -e 32 -c 2 -a 0 -i 10 -k MAC
r -t 1.605336417 -s 7 -d -1 -p message -e 32 -c 2 -a 0 -i 10 -k MAC
r -t 1.605336417 -s 9 -d -1 -p message -e 32 -c 2 -a 0 -i 10 -k MAC
r -t 1.605336514 -s 1 -d -1 -p message -e 32 -c 2 -a 0 -i 10 -k MAC
r -t 1.605336554 -s 6 -d -1 -p message -e 32 -c 2 -a 0 -i 10 -k MAC
r -t 1.605336681 -s 0 -d -1 -p message -e 32 -c 2 -a 0 -i 10 -k MAC
r -t 1.605336708 -s 5 -d -1 -p message -e 32 -c 2 -a 0 -i 10 -k MAC
r -t 1.605361348 -s 2 -d -1 -p message -e 32 -c 2 -a 0 -i 10 -k RTR
r -t 1.605361348 -s 8 -d -1 -p message -e 32 -c 2 -a 0 -i 10 -k RTR
r -t 1.605361348 -s 4 -d -1 -p message -e 32 -c 2 -a 0 -i 10 -k RTR
r -t 1.605361417 -s 7 -d -1 -p message -e 32 -c 2 -a 0 -i 10 -k RTR
r -t 1.605361417 -s 9 -d -1 -p message -e 32 -c 2 -a 0 -i 10 -k RTR
r -t 1.605361514 -s 1 -d -1 -p message -e 32 -c 2 -a 0 -i 10 -k RTR
r -t 1.605361554 -s 6 -d -1 -p message -e 32 -c 2 -a 0 -i 10 -k RTR
r -t 1.605361681 -s 0 -d -1 -p message -e 32 -c 2 -a 0 -i 10 -k RTR
r -t 1.605361708 -s 5 -d -1 -p message -e 32 -c 2 -a 0 -i 10 -k RTR
+ -t 1.635522040 -s 5 -d -1 -p message -e 32 -c 2 -a 0 -i 11 -k RTR 
- -t 1.635522040 -s 5 -d -1 -p message -e 32 -c 2 -a 0 -i 11 -k RTR
h -t 1.635522040 -s 5 -d -1 -p message -e 32 -c 2 -a 0 -i 11 -k RTR
+ -t 1.635597040 -s 5 -d -1 -p message -e 90 -c 2 -a 0 -i 11 -k MAC 
- -t 1.635597040 -s 5 -d -1 -p message -e 90 -c 2 -a 0 -i 11 -k MAC
h -t 1.635597040 -s 5 -d -1 -p message -e 90 -c 2 -a 0 -i 11 -k MAC
r -t 1.636317207 -s 0 -d -1 -p message -e 32 -c 2 -a 0 -i 11 -k MAC
r -t 1.636317207 -s 6 -d -1 -p message -e 32 -c 2 -a 0 -i 11 -k MAC
r -t 1.636317276 -s 1 -d -1 -p message -e 32 -c 2 -a 0 -i 11 -k MAC
r -t 1.636317374 -s 7 -d -1 -p message -e 32 -c 2 -a 0 -i 11 -k MAC
r -t 1.636317413 -s 2 -d -1 -p message -e 32 -c 2 -a 0 -i 11 -k MAC
r -t 1.636317540 -s 8 -d -1 -p message -e 32 -c 2 -a 0 -i 11 -k MAC
r -t 1.636317567 -s 3 -d -1 -p message -e 32 -c 2 -a 0 -i 11 -k MAC
r -t 1.636317707 -s 9 -d -1 -p message -e 32 -c 2 -a 0 -i 11 -k MAC
r -t 1.636317727 -s 4 -d -1 -p message -e 32 -c 2 -a 0 -i 11 -k MAC
r -t 1.636342207 -s 0 -d -1 -p message -e 32 -c 2 -a 0 -i 11 -k RTR
r -t 1.636342207 -s 6 -d -1 -p message -e 32 -c 2 -a 0 -i 11 -k RTR
r -t 1.636342276 -s 1 -d -1 -p message -e 32 -c 2 -a 0 -i 11 -k RTR
r -t 1.636342374 -s 7 -d -1 -p message -e 32 -c 2 -a 0 -i 11 -k RTR
r -t 1.636342413 -s 2 -d -1 -p message -e 32 -c 2 -a 0 -i 11 -k RTR
r -t 1.636342540 -s 8 -d -1 -p message -e 32 -c 2 -a 0 -i 11 -k RTR
r -t 1.636342567 -s 3 -d -1 -p message -e 32 -c 2 -a 0 -i 11 -k RTR
r -t 1.636342707 -s 9 -d -1 -p message -e 32 -c 2 -a 0 -i 11 -k RTR
r -t 1.636342727 -s 4 -d -1 -p message -e 32 -c 2 -a 0 -i 11 -k RTR
+ -t 1.636342727 -s 4 -d 5 -p ack -e 80 -c 2 -a 0 -i 8 -k RTR 
- -t 1.636342727 -s 4 -d 5 -p ack -e 80 -c 2 -a 0 -i 8 -k RTR
h -t 1.636342727 -s 4 -d 5 -p ack -e 80 -c 2 -a 0 -i 8 -k RTR
+ -t 1.636737727 -s 4 -d -1 -p RTS -e 44 -c 2 -a 0 -i 0 -k MAC 
- -t 1.636737727 -s 4 -d -1 -p RTS -e 44 -c 2 -a 0 -i 0 -k MAC
h -t 1.636737727 -s 4 -d -1 -p RTS -e 44 -c 2 -a 0 -i 0 -k MAC
r -t 1.637090415 -s 5 -d -1 -p RTS -e 44 -c 2 -a 0 -i 0 -k MAC
+ -t 1.637100415 -s 5 -d -1 -p CTS -e 38 -c 2 -a 0 -i 0 -k MAC 
- -t 1.637100415 -s 5 -d -1 -p CTS -e 38 -c 2 -a 0 -i 0 -k MAC
h -t 1.637100415 -s 5 -d -1 -p CTS -e 38 -c 2 -a 0 -i 0 -k MAC
r -t 1.637405102 -s 4 -d -1 -p CTS -e 38 -c 2 -a 0 -i 0 -k MAC
+ -t 1.637415102 -s 4 -d 5 -p ack -e 138 -c 2 -a 0 -i 8 -k MAC 
- -t 1.637415102 -s 4 -d 5 -p ack -e 138 -c 2 -a 0 -i 8 -k MAC
h -t 1.637415102 -s 4 -d 5 -p ack -e 138 -c 2 -a 0 -i 8 -k MAC
r -t 1.638519789 -s 5 -d 5 -p ack -e 80 -c 2 -a 0 -i 8 -k MAC
+ -t 1.638529789 -s 5 -d -1 -p ACK -e 38 -c 2 -a 0 -i 0 -k MAC 
- -t 1.638529789 -s 5 -d -1 -p ACK -e 38 -c 2 -a 0 -i 0 -k MAC
h -t 1.638529789 -s 5 -d -1 -p ACK -e 38 -c 2 -a 0 -i 0 -k MAC
r -t 1.638544789 -s 5 -d 5 -p ack -e 80 -c 2 -a 0 -i 8 -k AGT
+ -t 1.638544789 -s 5 -d -1 -p tcp -e 1540 -c 2 -a 0 -i 12 -k AGT 
- -t 1.638544789 -s 5 -d -1 -p tcp -e 1540 -c 2 -a 0 -i 12 -k AGT
h -t 1.638544789 -s 5 -d -1 -p tcp -e 1540 -c 2 -a 0 -i 12 -k AGT
+ -t 1.638544789 -s 5 -d 4 -p tcp -e 1560 -c 2 -a 0 -i 12 -k RTR 
- -t 1.638544789 -s 5 -d 4 -p tcp -e 1560 -c 2 -a 0 -i 12 -k RTR
h -t 1.638544789 -s 5 -d 4 -p tcp -e 1560 -c 2 -a 0 -i 12 -k RTR
+ -t 1.638544789 -s 5 -d -1 -p tcp -e 1540 -c 2 -a 0 -i 13 -k AGT 
- -t 1.638544789 -s 5 -d -1 -p tcp -e 1540 -c 2 -a 0 -i 13 -k AGT
h -t 1.638544789 -s 5 -d -1 -p tcp -e 1540 -c 2 -a 0 -i 13 -k AGT
+ -t 1.638544789 -s 5 -d 4 -p tcp -e 1560 -c 2 -a 0 -i 13 -k RTR 
- -t 1.638544789 -s 5 -d 4 -p tcp -e 1560 -c 2 -a 0 -i 13 -k RTR
h -t 1.638544789 -s 5 -d 4 -p tcp -e 1560 -c 2 -a 0 -i 13 -k RTR
r -t 1.638834476 -s 4 -d -1 -p ACK -e 38 -c 2 -a 0 -i 0 -k MAC
+ -t 1.639043789 -s 5 -d -1 -p RTS -e 44 -c 2 -a 0 -i 0 -k MAC 
- -t 1.639043789 -s 5 -d -1 -p RTS -e 44 -c 2 -a 0 -i 0 -k MAC
h -t 1.639043789 -s 5 -d -1 -p RTS -e 44 -c 2 -a 0 -i 0 -k MAC
r -t 1.639396476 -s 4 -d -1 -p RTS -e 44 -c 2 -a 0 -i 0 -k MAC
+ -t 1.639406476 -s 4 -d -1 -p CTS -e 38 -c 2 -a 0 -i 0 -k MAC 
- -t 1.639406476 -s 4 -d -1 -p CTS -e 38 -c 2 -a 0 -i 0 -k MAC
h -t 1.639406476 -s 4 -d -1 -p CTS -e 38 -c 2 -a 0 -i 0 -k MAC
r -t 1.639711163 -s 5 -d -1 -p CTS -e 38 -c 2 -a 0 -i 0 -k MAC
+ -t 1.639721163 -s 5 -d 4 -p tcp -e 1618 -c 2 -a 0 -i 12 -k MAC 
- -t 1.639721163 -s 5 -d 4 -p tcp -e 1618 -c 2 -a 0 -i 12 -k MAC
h -t 1.639721163 -s 5 -d 4 -p tcp -e 1618 -c 2 -a 0 -i 12 -k MAC
r -t 1.652665851 -s 4 -d 4 -p tcp -e 1560 -c 2 -a 0 -i 12 -k MAC
+ -t 1.652675851 -s 4 -d -1 -p ACK -e 38 -c 2 -a 0 -i 0 -k MAC 
- -t 1.652675851 -s 4 -d -1 -p ACK -e 38 -c 2 -a 0 -i 0 -k MAC
h -t 1.652675851 -s 4 -d -1 -p ACK -e 38 -c 2 -a 0 -i 0 -k MAC
r -t 1.652690851 -s 4 -d 4 -p tcp -e 1560 -c 2 -a 0 -i 12 -k AGT
+ -t 1.652690851 -s 4 -d -1 -p ack -e 40 -c 2 -a 0 -i 14 -k AGT 
- -t 1.652690851 -s 4 -d -1 -p ack -e 40 -c 2 -a 0 -i 14 -k AGT
h -t 1.652690851 -s 4 -d -1 -p ack -e 40 -c 2 -a 0 -i 14 -k AGT
+ -t 1.652690851 -s 4 -d 5 -p ack -e 60 -c 2 -a 0 -i 14 -k RTR 
- -t 1.652690851 -s 4 -d 5 -p ack -e 60 -c 2 -a 0 -i 14 -k RTR
h -t 1.652690851 -s 4 -d 5 -p ack -e 60 -c 2 -a 0 -i 14 -k RTR
r -t 1.652980538 -s 5 -d -1 -p ACK -e 38 -c 2 -a 0 -i 0 -k MAC
+ -t 1.653109851 -s 4 -d -1 -p RTS -e 44 -c 2 -a 0 -i 0 -k MAC 
- -t 1.653109851 -s 4 -d -1 -p RTS -e 44 -c 2 -a 0 -i 0 -k MAC
h -t 1.653109851 -s 4 -d -1 -p RTS -e 44 -c 2 -a 0 -i 0 -k MAC
+ -t 1.653110538 -s 5 -d -1 -p RTS -e 44 -c 2 -a 0 -i 0 -k MAC 
- -t 1.653110538 -s 5 -d -1 -p RTS -e 44 -c 2 -a 0 -i 0 -k MAC
h -t 1.653110538 -s 5 -d -1 -p RTS -e 44 -c 2 -a 0 -i 0 -k MAC
+ -t 1.653976538 -s 5 -d -1 -p RTS -e 44 -c 2 -a 0 -i 0 -k MAC 
- -t 1.653976538 -s 5 -d -1 -p RTS -e 44 -c 2 -a 0 -i 0 -k MAC
h -t 1.653976538 -s 5 -d -1 -p RTS -e 44 -c 2 -a 0 -i 0 -k MAC
r -t 1.654329225 -s 4 -d -1 -p RTS -e 44 -c 2 -a 0 -i 0 -k MAC
+ -t 1.654339225 -s 4 -d -1 -p CTS -e 38 -c 2 -a 0 -i 0 -k MAC 
- -t 1.654339225 -s 4 -d -1 -p CTS -e 38 -c 2 -a 0 -i 0 -k MAC
h -t 1.654339225 -s 4 -d -1 -p CTS -e 38 -c 2 -a 0 -i 0 -k MAC
r -t 1.654643912 -s 5 -d -1 -p CTS -e 38 -c 2 -a 0 -i 0 -k MAC
+ -t 1.654653912 -s 5 -d 4 -p tcp -e 1618 -c 2 -a 0 -i 13 -k MAC 
- -t 1.654653912 -s 5 -d 4 -p tcp -e 1618 -c 2 -a 0 -i 13 -k MAC
h -t 1.654653912 -s 5 -d 4 -p tcp -e 1618 -c 2 -a 0 -i 13 -k MAC
r -t 1.667598599 -s 4 -d 4 -p tcp -e 1560 -c 2 -a 0 -i 13 -k MAC
+ -t 1.667608599 -s 4 -d -1 -p ACK -e 38 -c 2 -a 0 -i 0 -k MAC 
- -t 1.667608599 -s 4 -d -1 -p ACK -e 38 -c 2 -a 0 -i 0 -k MAC
h -t 1.667608599 -s 4 -d -1 -p ACK -e 38 -c 2 -a 0 -i 0 -k MAC
r -t 1.667623599 -s 4 -d 4 -p tcp -e 1560 -c 2 -a 0 -i 13 -k AGT
+ -t 1.667623599 -s 4 -d -1 -p ack -e 40 -c 2 -a 0 -i 15 -k AGT 
- -t 1.667623599 -s 4 -d -1 -p ack -e 40 -c 2 -a 0 -i 15 -k AGT
h -t 1.667623599 -s 4 -d -1 -p ack -e 40 -c 2 -a 0 -i 15 -k AGT
+ -t 1.667623599 -s 4 -d 5 -p ack -e 60 -c 2 -a 0 -i 15 -k RTR 
- -t 1.667623599 -s 4 -d 5 -p ack -e 60 -c 2 -a 0 -i 15 -k RTR
h -t 1.667623599 -s 4 -d 5 -p ack -e 60 -c 2 -a 0 -i 15 -k RTR
r -t 1.667913286 -s 5 -d -1 -p ACK -e 38 -c 2 -a 0 -i 0 -k MAC
+ -t 1.668262599 -s 4 -d -1 -p RTS -e 44 -c 2 -a 0 -i 0 -k MAC 
- -t 1.668262599 -s 4 -d -1 -p RTS -e 44 -c 2 -a 0 -i 0 -k MAC
h -t 1.668262599 -s 4 -d -1 -p RTS -e 44 -c 2 -a 0 -i 0 -k MAC
r -t 1.668615286 -s 5 -d -1 -p RTS -e 44 -c 2 -a 0 -i 0 -k MAC
+ -t 1.668625286 -s 5 -d -1 -p CTS -e 38 -c 2 -a 0 -i 0 -k MAC 
- -t 1.668625286 -s 5 -d -1 -p CTS -e 38 -c 2 -a 0 -i 0 -k MAC
h -t 1.668625286 -s 5 -d -1 -p CTS -e 38 -c 2 -a 0 -i 0 -k MAC
r -t 1.668929974 -s 4 -d -1 -p CTS -e 38 -c 2 -a 0 -i 0 -k MAC
+ -t 1.668939974 -s 4 -d 5 -p ack -e 118 -c 2 -a 0 -i 14 -k MAC 
- -t 1.668939974 -s 4 -d 5 -p ack -e 118 -c 2 -a 0 -i 14 -k MAC
h -t 1.668939974 -s 4 -d 5 -p ack -e 118 -c 2 -a 0 -i 14 -k MAC
r -t 1.669884661 -s 5 -d 5 -p ack -e 60 -c 2 -a 0 -i 14 -k MAC
+ -t 1.669894661 -s 5 -d -1 -p ACK -e 38 -c 2 -a 0 -i 0 -k MAC 
- -t 1.669894661 -s 5 -d -1 -p ACK -e 38 -c 2 -a 0 -i 0 -k MAC
h -t 1.669894661 -s 5 -d -1 -p ACK -e 38 -c 2 -a 0 -i 0 -k MAC
r -t 1.669909661 -s 5 -d 5 -p ack -e 60 -c 2 -a 0 -i 14 -k AGT
+ -t 1.669909661 -s 5 -d -1 -p tcp -e 1540 -c 2 -a 0 -i 16 -k AGT 
- -t 1.669909661 -s 5 -d -1 -p tcp -e 1540 -c 2 -a 0 -i 16 -k AGT
h -t 1.669909661 -s 5 -d -1 -p tcp -e 1540 -c 2 -a 0 -i 16 -k AGT
+ -t 1.669909661 -s 5 -d 4 -p tcp -e 1560 -c 2 -a 0 -i 16 -k RTR 
- -t 1.669909661 -s 5 -d 4 -p tcp -e 1560 -c 2 -a 0 -i 16 -k RTR
h -t 1.669909661 -s 5 -d 4 -p tcp -e 1560 -c 2 -a 0 -i 16 -k RTR
+ -t 1.669909661 -s 5 -d -1 -p tcp -e 1540 -c 2 -a 0 -i 17 -k AGT 
- -t 1.669909661 -s 5 -d -1 -p tcp -e 1540 -c 2 -a 0 -i 17 -k AGT
h -t 1.669909661 -s 5 -d -1 -p tcp -e 1540 -c 2 -a 0 -i 17 -k AGT
+ -t 1.669909661 -s 5 -d 4 -p tcp -e 1560 -c 2 -a 0 -i 17 -k RTR 
- -t 1.669909661 -s 5 -d 4 -p tcp -e 1560 -c 2 -a 0 -i 17 -k RTR
h -t 1.669909661 -s 5 -d 4 -p tcp -e 1560 -c 2 -a 0 -i 17 -k RTR
r -t 1.670199348 -s 4 -d -1 -p ACK -e 38 -c 2 -a 0 -i 0 -k MAC
+ -t 1.670529348 -s 4 -d -1 -p RTS -e 44 -c 2 -a 0 -i 0 -k MAC 
- -t 1.670529348 -s 4 -d -1 -p RTS -e 44 -c 2 -a 0 -i 0 -k MAC
h -t 1.670529348 -s 4 -d -1 -p RTS -e 44 -c 2 -a 0 -i 0 -k MAC
r -t 1.670882035 -s 5 -d -1 -p RTS -e 44 -c 2 -a 0 -i 0 -k MAC
+ -t 1.670892035 -s 5 -d -1 -p CTS -e 38 -c 2 -a 0 -i 0 -k MAC 
- -t 1.670892035 -s 5 -d -1 -p CTS -e 38 -c 2 -a 0 -i 0 -k MAC
h -t 1.670892035 -s 5 -d -1 -p CTS -e 38 -c 2 -a 0 -i 0 -k MAC
r -t 1.671196722 -s 4 -d -1 -p CTS -e 38 -c 2 -a 0 -i 0 -k MAC
+ -t 1.671206722 -s 4 -d 5 -p ack -e 118 -c 2 -a 0 -i 15 -k MAC 
- -t 1.671206722 -s 4 -d 5 -p ack -e 118 -c 2 -a 0 -i 15 -k MAC
h -t 1.671206722 -s 4 -d 5 -p ack -e 118 -c 2 -a 0 -i 15 -k MAC
r -t 1.672151410 -s 5 -d 5 -p ack -e 60 -c 2 -a 0 -i 15 -k MAC
+ -t 1.672161410 -s 5 -d -1 -p ACK -e 38 -c 2 -a 0 -i 0 -k MAC 
- -t 1.672161410 -s 5 -d -1 -p ACK -e 38 -c 2 -a 0 -i 0 -k MAC
h -t 1.672161410 -s 5 -d -1 -p ACK -e 38 -c 2 -a 0 -i 0 -k MAC
r -t 1.672176410 -s 5 -d 5 -p ack -e 60 -c 2 -a 0 -i 15 -k AGT
+ -t 1.672176410 -s 5 -d -1 -p tcp -e 1540 -c 2 -a 0 -i 18 -k AGT 
- -t 1.672176410 -s 5 -d -1 -p tcp -e 1540 -c 2 -a 0 -i 18 -k AGT
h -t 1.672176410 -s 5 -d -1 -p tcp -e 1540 -c 2 -a 0 -i 18 -k AGT
+ -t 1.672176410 -s 5 -d 4 -p tcp -e 1560 -c 2 -a 0 -i 18 -k RTR 
- -t 1.672176410 -s 5 -d 4 -p tcp -e 1560 -c 2 -a 0 -i 18 -k RTR
h -t 1.672176410 -s 5 -d 4 -p tcp -e 1560 -c 2 -a 0 -i 18 -k RTR
+ -t 1.672176410 -s 5 -d -1 -p tcp -e 1540 -c 2 -a 0 -i 19 -k AGT 
- -t 1.672176410 -s 5 -d -1 -p tcp -e 1540 -c 2 -a 0 -i 19 -k AGT
h -t 1.672176410 -s 5 -d -1 -p tcp -e 1540 -c 2 -a 0 -i 19 -k AGT
+ -t 1.672176410 -s 5 -d 4 -p tcp -e 1560 -c 2 -a 0 -i 19 -k RTR 
- -t 1.672176410 -s 5 -d 4 -p tcp -e 1560 -c 2 -a 0 -i 19 -k RTR
h -t 1.672176410 -s 5 -d 4 -p tcp -e 1560 -c 2 -a 0 -i 19 -k RTR
r -t 1.672466097 -s 4 -d -1 -p ACK -e 38 -c 2 -a 0 -i 0 -k MAC
+ -t 1.672535410 -s 5 -d -1 -p RTS -e 44 -c 2 -a 0 -i 0 -k MAC 
- -t 1.672535410 -s 5 -d -1 -p RTS -e 44 -c 2 -a 0 -i 0 -k MAC
h -t 1.672535410 -s 5 -d -1 -p RTS -e 44 -c 2 -a 0 -i 0 -k MAC
r -t 1.672888097 -s 4 -d -1 -p RTS -e 44 -c 2 -a 0 -i 0 -k MAC
+ -t 1.672898097 -s 4 -d -1 -p CTS -e 38 -c 2 -a 0 -i 0 -k MAC 
- -t 1.672898097 -s 4 -d -1 -p CTS -e 38 -c 2 -a 0 -i 0 -k MAC
h -t 1.672898097 -s 4 -d -1 -p CTS -e 38 -c 2 -a 0 -i 0 -k MAC
r -t 1.673202784 -s 5 -d -1 -p CTS -e 38 -c 2 -a 0 -i 0 -k MAC
+ -t 1.673212784 -s 5 -d 4 -p tcp -e 1618 -c 2 -a 0 -i 16 -k MAC 
- -t 1.673212784 -s 5 -d 4 -p tcp -e 1618 -c 2 -a 0 -i 16 -k MAC
h -t 1.673212784 -s 5 -d 4 -p tcp -e 1618 -c 2 -a 0 -i 16 -k MAC
+ -t 1.679596446 -s 9 -d -1 -p message -e 32 -c 2 -a 0 -i 20 -k RTR 
- -t 1.679596446 -s 9 -d -1 -p message -e 32 -c 2 -a 0 -i 20 -k RTR
h -t 1.679596446 -s 9 -d -1 -p message -e 32 -c 2 -a 0 -i 20 -k RTR
r -t 1.686157471 -s 4 -d 4 -p tcp -e 1560 -c 2 -a 0 -i 16 -k MAC
+ -t 1.686167471 -s 4 -d -1 -p ACK -e 38 -c 2 -a 0 -i 0 -k MAC 
- -t 1.686167471 -s 4 -d -1 -p ACK -e 38 -c 2 -a 0 -i 0 -k MAC
h -t 1.686167471 -s 4 -d -1 -p ACK -e 38 -c 2 -a 0 -i 0 -k MAC
r -t 1.686182471 -s 4 -d 4 -p tcp -e 1560 -c 2 -a 0 -i 16 -k AGT
+ -t 1.686182471 -s 4 -d -1 -p ack -e 40 -c 2 -a 0 -i 21 -k AGT 
- -t 1.686182471 -s 4 -d -1 -p ack -e 40 -c 2 -a 0 -i 21 -k AGT
h -t 1.686182471 -s 4 -d -1 -p ack -e 40 -c 2 -a 0 -i 21 -k AGT
+ -t 1.686182471 -s 4 -d 5 -p ack -e 60 -c 2 -a 0 -i 21 -k RTR 
- -t 1.686182471 -s 4 -d 5 -p ack -e 60 -c 2 -a 0 -i 21 -k RTR
h -t 1.686182471 -s 4 -d 5 -p ack -e 60 -c 2 -a 0 -i 21 -k RTR
r -t 1.686472158 -s 5 -d -1 -p ACK -e 38 -c 2 -a 0 -i 0 -k MAC
+ -t 1.686562158 -s 5 -d -1 -p RTS -e 44 -c 2 -a 0 -i 0 -k MAC 
- -t 1.686562158 -s 5 -d -1 -p RTS -e 44 -c 2 -a 0 -i 0 -k MAC
h -t 1.686562158 -s 5 -d -1 -p RTS -e 44 -c 2 -a 0 -i 0 -k MAC
r -t 1.686914845 -s 4 -d -1 -p RTS -e 44 -c 2 -a 0 -i 0 -k MAC
+ -t 1.686924845 -s 4 -d -1 -p CTS -e 38 -c 2 -a 0 -i 0 -k MAC 
- -t 1.686924845 -s 4 -d -1 -p CTS -e 38 -c 2 -a 0 -i 0 -k MAC